unknown system                          
   1.00000000000000     
     1.599243   -2.769970    0.000000
     1.599243    2.769970    0.000000
     0.000000    0.000000    5.075185
   Hf
     2
Direct
  0.666667  0.333333  0.250000
  0.333333  0.666667  0.750000
 
   36   36   56
  6.5652      6.5709      6.5887      6.6198      6.6651      6.7247      6.7970      6.8794      6.9685      7.0611    
  7.1541      7.2446      7.3297      7.4068      7.4734      7.5273      7.5670      7.5913      7.5995      7.5913    
  7.5670      7.5273      7.4734      7.4068      7.3297      7.2446      7.1541      7.0611      6.9685      6.8794    
  6.7970      6.7247      6.6651      6.6198      6.5887      6.5709      6.5709      6.5709      6.5827      6.6072    
  6.6456      6.6985      6.7651      6.8431      6.9296      7.0213      7.1150      7.2079      7.2973      7.3803    
  7.4541      7.5163      7.5649      7.5982      7.6152      7.6152      7.5982      7.5649      7.5163      7.4541    
  7.3803      7.2973      7.2079      7.1150      7.0213      6.9296      6.8431      6.7651      6.6985      6.6456    
  6.6072      6.5827      6.5887      6.5827      6.5887      6.6072      6.6393      6.6858      6.7465      6.8200    
  6.9035      6.9939      7.0885      7.1843      7.2790      7.3696      7.4534      7.5271      7.5878      7.6332    
  7.6613      7.6708      7.6613      7.6332      7.5878      7.5271      7.4534      7.3696      7.2790      7.1843    
  7.0885      6.9939      6.9035      6.8200      6.7465      6.6858      6.6393      6.6072      6.6198      6.6072    
  6.6072      6.6198      6.6456      6.6858      6.7405      6.8088      6.8887      6.9773      7.0721      7.1706    
  7.2708      7.3701      7.4656      7.5537      7.6304      7.6919      7.7350      7.7572      7.7572      7.7350    
  7.6919      7.6304      7.5537      7.4656      7.3701      7.2708      7.1706      7.0721      6.9773      6.8887    
  6.8088      6.7405      6.6858      6.6456      6.6651      6.6456      6.6393      6.6456      6.6651      6.6985    
  6.7465      6.8088      6.8839      6.9696      7.0635      7.1638      7.2688      7.3767      7.4848      7.5893    
  7.6853      7.7675      7.8306      7.8703      7.8839      7.8703      7.8306      7.7675      7.6854      7.5893    
  7.4848      7.3767      7.2688      7.1638      7.0635      6.9696      6.8839      6.8088      6.7465      6.6985    
  6.7247      6.6985      6.6858      6.6858      6.6985      6.7247      6.7651      6.8200      6.8887      6.9696    
  7.0609      7.1612      7.2694      7.3846      7.5048      7.6263      7.7438      7.8503      7.9386      8.0017    
  8.0347      8.0347      8.0017      7.9386      7.8503      7.7438      7.6263      7.5048      7.3846      7.2694    
  7.1612      7.0609      6.9696      6.8887      6.8200      6.7651      6.7970      6.7651      6.7465      6.7405    
  6.7465      6.7651      6.7970      6.8431      6.9035      6.9773      7.0635      7.1612      7.2700      7.3897    
  7.5195      7.6566      7.7956      7.9286      8.0461      8.1386      8.1978      8.2182      8.1978      8.1386    
  8.0461      7.9286      7.7956      7.6566      7.5195      7.3897      7.2700      7.1612      7.0635      6.9773    
  6.9035      6.8431      6.8794      6.8431      6.8200      6.8088      6.8088      6.8200      6.8431      6.8794    
  6.9296      6.9939      7.0721      7.1638      7.2694      7.3897      7.5250      7.6737      7.8314      7.9899    
  8.1383      8.2643      8.3561      8.4045      8.4045      8.3561      8.2643      8.1383      7.9899      7.8314    
  7.6737      7.5250      7.3897      7.2694      7.1638      7.0721      6.9939      6.9296      6.9685      6.9296    
  6.9035      6.8887      6.8839      6.8887      6.9035      6.9296      6.9685      7.0213      7.0885      7.1706    
  7.2688      7.3846      7.5195      7.6737      7.8441      8.0236      8.2007      8.3610      8.4895      8.5727    
  8.6016      8.5727      8.4895      8.3610      8.2007      8.0236      7.8441      7.6737      7.5195      7.3846    
  7.2688      7.1706      7.0885      7.0213      7.0611      7.0213      6.9939      6.9773      6.9696      6.9696    
  6.9773      6.9939      7.0213      7.0611      7.1150      7.1843      7.2708      7.3767      7.5048      7.6566    
  7.8314      8.0236      8.2227      8.4138      8.5790      8.7009      8.7657      8.7657      8.7009      8.5790    
  8.4138      8.2227      8.0236      7.8314      7.6566      7.5048      7.3767      7.2708      7.1843      7.1150    
  7.1541      7.1150      7.0885      7.0721      7.0635      7.0609      7.0635      7.0721      7.0885      7.1150    
  7.1541      7.2079      7.2790      7.3701      7.4848      7.6263      7.7956      7.9899      8.2007      8.4138    
  8.6105      8.7704      8.8750      8.9114      8.8750      8.7704      8.6105      8.4138      8.2007      7.9899    
  7.7956      7.6263      7.4848      7.3701      7.2790      7.2079      7.2446      7.2079      7.1843      7.1706    
  7.1638      7.1612      7.1612      7.1638      7.1706      7.1843      7.2079      7.2446      7.2973      7.3696    
  7.4656      7.5893      7.7438      7.9286      8.1383      8.3610      8.5790      8.7704      8.9133      8.9898    
  8.9898      8.9133      8.7704      8.5790      8.3610      8.1383      7.9286      7.7438      7.5893      7.4656    
  7.3696      7.2973      7.3297      7.2973      7.2790      7.2708      7.2688      7.2694      7.2700      7.2694    
  7.2688      7.2708      7.2790      7.2973      7.3297      7.3803      7.4534      7.5537      7.6854      7.8503    
  8.0461      8.2643      8.4895      8.7009      8.8750      8.9898      9.0300      8.9898      8.8750      8.7009    
  8.4895      8.2643      8.0461      7.8503      7.6854      7.5537      7.4534      7.3803      7.4068      7.3803    
  7.3696      7.3701      7.3767      7.3846      7.3897      7.3897      7.3846      7.3767      7.3701      7.3696    
  7.3803      7.4068      7.4541      7.5271      7.6304      7.7675      7.9386      8.1386      8.3561      8.5727    
  8.7657      8.9114      8.9898      8.9898      8.9114      8.7657      8.5727      8.3561      8.1386      7.9386    
  7.7675      7.6304      7.5271      7.4541      7.4734      7.4541      7.4534      7.4656      7.4848      7.5048    
  7.5195      7.5250      7.5195      7.5048      7.4848      7.4656      7.4534      7.4541      7.4734      7.5163    
  7.5878      7.6919      7.8306      8.0017      8.1978      8.4045      8.6016      8.7657      8.8750      8.9133    
  8.8750      8.7657      8.6016      8.4045      8.1978      8.0017      7.8306      7.6919      7.5878      7.5163    
  7.5273      7.5163      7.5271      7.5537      7.5893      7.6263      7.6566      7.6737      7.6737      7.6566    
  7.6263      7.5893      7.5537      7.5271      7.5163      7.5273      7.5649      7.6332      7.7350      7.8703    
  8.0347      8.2182      8.4045      8.5727      8.7009      8.7704      8.7704      8.7009      8.5727      8.4045    
  8.2182      8.0347      7.8703      7.7350      7.6332      7.5649      7.5670      7.5649      7.5878      7.6304    
  7.6854      7.7438      7.7956      7.8314      7.8441      7.8314      7.7956      7.7438      7.6853      7.6304    
  7.5878      7.5649      7.5670      7.5982      7.6613      7.7572      7.8839      8.0347      8.1978      8.3561    
  8.4895      8.5790      8.6105      8.5790      8.4895      8.3561      8.1978      8.0347      7.8839      7.7572    
  7.6613      7.5982      7.5913      7.5982      7.6332      7.6919      7.7675      7.8503      7.9286      7.9899    
  8.0236      8.0236      7.9899      7.9286      7.8503      7.7675      7.6919      7.6332      7.5982      7.5913    
  7.6152      7.6708      7.7572      7.8703      8.0018      8.1386      8.2643      8.3610      8.4138      8.4138    
  8.3610      8.2643      8.1386      8.0017      7.8703      7.7572      7.6708      7.6152      7.5995      7.6152    
  7.6613      7.7350      7.8306      7.9386      8.0461      8.1383      8.2007      8.2227      8.2007      8.1383    
  8.0461      7.9386      7.8306      7.7350      7.6613      7.6151      7.5995      7.6152      7.6613      7.7350    
  7.8306      7.9386      8.0461      8.1383      8.2007      8.2227      8.2007      8.1383      8.0461      7.9386    
  7.8306      7.7350      7.6613      7.6152      7.5913      7.6152      7.6708      7.7572      7.8703      8.0017    
  8.1386      8.2643      8.3610      8.4138      8.4138      8.3610      8.2643      8.1386      8.0017      7.8703    
  7.7572      7.6708      7.6152      7.5913      7.5982      7.6332      7.6919      7.7675      7.8503      7.9286    
  7.9899      8.0236      8.0236      7.9899      7.9286      7.8503      7.7675      7.6919      7.6332      7.5982    
  7.5670      7.5982      7.6613      7.7572      7.8839      8.0347      8.1978      8.3561      8.4895      8.5790    
  8.6105      8.5790      8.4895      8.3561      8.1978      8.0347      7.8839      7.7572      7.6613      7.5982    
  7.5670      7.5649      7.5878      7.6304      7.6854      7.7438      7.7956      7.8314      7.8441      7.8314    
  7.7956      7.7438      7.6853      7.6304      7.5878      7.5649      7.5273      7.5649      7.6332      7.7350    
  7.8703      8.0347      8.2182      8.4045      8.5727      8.7009      8.7704      8.7704      8.7009      8.5727    
  8.4045      8.2182      8.0347      7.8703      7.7350      7.6332      7.5649      7.5273      7.5163      7.5271    
  7.5537      7.5893      7.6263      7.6566      7.6737      7.6737      7.6566      7.6263      7.5893      7.5537    
  7.5271      7.5163      7.4734      7.5163      7.5878      7.6919      7.8306      8.0017      8.1978      8.4045    
  8.6016      8.7657      8.8750      8.9133      8.8750      8.7657      8.6016      8.4045      8.1978      8.0017    
  7.8305      7.6919      7.5878      7.5163      7.4734      7.4541      7.4534      7.4656      7.4848      7.5048    
  7.5195      7.5250      7.5195      7.5048      7.4848      7.4656      7.4534      7.4541      7.4068      7.4541    
  7.5271      7.6304      7.7675      7.9386      8.1386      8.3561      8.5727      8.7657      8.9114      8.9898    
  8.9898      8.9114      8.7657      8.5727      8.3561      8.1386      7.9386      7.7675      7.6304      7.5271    
  7.4541      7.4068      7.3803      7.3696      7.3701      7.3767      7.3846      7.3897      7.3897      7.3846    
  7.3767      7.3701      7.3696      7.3803      7.3297      7.3803      7.4534      7.5537      7.6853      7.8503    
  8.0461      8.2643      8.4895      8.7009      8.8750      8.9898      9.0300      8.9898      8.8750      8.7009    
  8.4895      8.2643      8.0461      7.8503      7.6853      7.5537      7.4534      7.3803      7.3297      7.2973    
  7.2790      7.2708      7.2688      7.2694      7.2700      7.2694      7.2688      7.2708      7.2790      7.2973    
  7.2446      7.2973      7.3696      7.4656      7.5893      7.7438      7.9286      8.1383      8.3610      8.5790    
  8.7704      8.9133      8.9898      8.9898      8.9133      8.7704      8.5790      8.3610      8.1383      7.9286    
  7.7438      7.5893      7.4656      7.3696      7.2973      7.2446      7.2079      7.1843      7.1706      7.1638    
  7.1612      7.1612      7.1638      7.1706      7.1843      7.2079      7.1541      7.2079      7.2790      7.3701    
  7.4848      7.6263      7.7956      7.9899      8.2007      8.4138      8.6105      8.7704      8.8750      8.9114    
  8.8750      8.7704      8.6105      8.4138      8.2007      7.9899      7.7956      7.6263      7.4848      7.3701    
  7.2790      7.2079      7.1541      7.1150      7.0885      7.0721      7.0635      7.0609      7.0635      7.0721    
  7.0885      7.1150      7.0611      7.1150      7.1843      7.2708      7.3767      7.5048      7.6566      7.8314    
  8.0236      8.2227      8.4138      8.5790      8.7009      8.7657      8.7657      8.7009      8.5790      8.4138    
  8.2227      8.0236      7.8314      7.6566      7.5048      7.3767      7.2708      7.1843      7.1150      7.0611    
  7.0213      6.9939      6.9773      6.9696      6.9696      6.9773      6.9939      7.0213      6.9685      7.0213    
  7.0885      7.1706      7.2688      7.3846      7.5195      7.6737      7.8441      8.0236      8.2007      8.3610    
  8.4895      8.5727      8.6016      8.5727      8.4895      8.3610      8.2007      8.0236      7.8441      7.6737    
  7.5195      7.3846      7.2688      7.1706      7.0885      7.0213      6.9685      6.9296      6.9035      6.8887    
  6.8839      6.8887      6.9035      6.9296      6.8794      6.9296      6.9939      7.0721      7.1638      7.2694    
  7.3897      7.5250      7.6737      7.8314      7.9899      8.1383      8.2643      8.3561      8.4045      8.4045    
  8.3561      8.2643      8.1383      7.9899      7.8314      7.6737      7.5250      7.3897      7.2694      7.1638    
  7.0721      6.9939      6.9296      6.8794      6.8431      6.8200      6.8088      6.8088      6.8200      6.8431    
  6.7970      6.8431      6.9035      6.9773      7.0635      7.1612      7.2700      7.3897      7.5195      7.6566    
  7.7956      7.9286      8.0461      8.1386      8.1978      8.2182      8.1978      8.1386      8.0461      7.9286    
  7.7956      7.6566      7.5195      7.3897      7.2700      7.1612      7.0635      6.9773      6.9035      6.8431    
  6.7970      6.7651      6.7465      6.7405      6.7465      6.7651      6.7247      6.7651      6.8200      6.8887    
  6.9696      7.0609      7.1612      7.2694      7.3846      7.5048      7.6263      7.7438      7.8503      7.9386    
  8.0017      8.0347      8.0347      8.0018      7.9386      7.8503      7.7438      7.6263      7.5048      7.3846    
  7.2694      7.1612      7.0609      6.9696      6.8887      6.8200      6.7651      6.7247      6.6985      6.6858    
  6.6858      6.6985      6.6651      6.6985      6.7465      6.8088      6.8839      6.9696      7.0635      7.1638    
  7.2688      7.3767      7.4848      7.5893      7.6853      7.7675      7.8306      7.8703      7.8839      7.8703    
  7.8306      7.7675      7.6854      7.5893      7.4848      7.3767      7.2688      7.1638      7.0635      6.9696    
  6.8839      6.8088      6.7465      6.6985      6.6651      6.6456      6.6393      6.6456      6.6198      6.6456    
  6.6858      6.7405      6.8088      6.8887      6.9773      7.0721      7.1706      7.2708      7.3701      7.4656    
  7.5537      7.6304      7.6919      7.7350      7.7572      7.7572      7.7350      7.6919      7.6304      7.5537    
  7.4656      7.3701      7.2708      7.1706      7.0721      6.9773      6.8887      6.8088      6.7405      6.6858    
  6.6456      6.6198      6.6072      6.6072      6.5887      6.6072      6.6393      6.6858      6.7465      6.8200    
  6.9035      6.9939      7.0885      7.1843      7.2790      7.3696      7.4534      7.5271      7.5878      7.6332    
  7.6613      7.6708      7.6613      7.6332      7.5878      7.5271      7.4534      7.3696      7.2790      7.1843    
  7.0885      6.9939      6.9035      6.8200      6.7465      6.6858      6.6393      6.6072      6.5887      6.5827    
  6.5709      6.5827      6.6072      6.6456      6.6985      6.7651      6.8431      6.9296      7.0213      7.1150    
  7.2079      7.2973      7.3803      7.4541      7.5163      7.5649      7.5982      7.6152      7.6152      7.5982    
  7.5649      7.5163      7.4541      7.3803      7.2973      7.2079      7.1150      7.0213      6.9296      6.8431    
  6.7651      6.6985      6.6456      6.6072      6.5827      6.5709      6.5605      6.5665      6.5849      6.6168    
  6.6630      6.7233      6.7961      6.8785      6.9673      7.0592      7.1513      7.2410      7.3257      7.4027    
  7.4695      7.5239      7.5641      7.5888      7.5971      7.5888      7.5641      7.5239      7.4695      7.4027    
  7.3257      7.2411      7.1513      7.0592      6.9673      6.8785      6.7961      6.7233      6.6630      6.6168    
  6.5849      6.5665      6.5665      6.5665      6.5788      6.6042      6.6435      6.6968      6.7628      6.8394    
  6.9232      7.0112      7.1006      7.1891      7.2745      7.3546      7.4268      7.4886      7.5376      7.5716    
  7.5890      7.5890      7.5716      7.5376      7.4886      7.4268      7.3546      7.2745      7.1891      7.1006    
  7.0112      6.9232      6.8394      6.7628      6.6968      6.6435      6.6042      6.5788      6.5849      6.5785    
  6.5849      6.6042      6.6372      6.6839      6.7438      6.8148      6.8941      6.9789      7.0665      7.1550    
  7.2428      7.3282      7.4086      7.4812      7.5426      7.5894      7.6187      7.6287      7.6187      7.5894    
  7.5426      7.4812      7.4086      7.3282      7.2428      7.1550      7.0665      6.9789      6.8941      6.8148    
  6.7438      6.6839      6.6372      6.6042      6.6168      6.6036      6.6036      6.6168      6.6435      6.6839    
  6.7376      6.8031      6.8780      6.9597      7.0460      7.1354      7.2269      7.3193      7.4107      7.4977    
  7.5759      7.6405      7.6867      7.7108      7.7108      7.6867      7.6405      7.5759      7.4977      7.4107    
  7.3193      7.2269      7.1354      7.0460      6.9597      6.8780      6.8031      6.7376      6.6839      6.6435    
  6.6630      6.6428      6.6361      6.6428      6.6630      6.6968      6.7438      6.8031      6.8728      6.9509    
  7.0356      7.1259      7.2215      7.3221      7.4263      7.5308      7.6305      7.7186      7.7881      7.8327    
  7.8480      7.8327      7.7881      7.7186      7.6305      7.5308      7.4263      7.3221      7.2215      7.1259    
  7.0356      6.9509      6.8728      6.8031      6.7438      6.6968      6.7233      6.6968      6.6836      6.6836    
  6.6968      6.7233      6.7628      6.8148      6.8780      6.9509      7.0325      7.1225      7.2212      7.3295    
  7.4468      7.5704      7.6949      7.8118      7.9115      7.9844      8.0229      8.0229      7.9844      7.9115    
  7.8118      7.6949      7.5704      7.4468      7.3295      7.2212      7.1225      7.0325      6.9509      6.8780    
  6.8148      6.7628      6.7961      6.7648      6.7460      6.7397      6.7460      6.7648      6.7961      6.8394    
  6.8941      6.9597      7.0356      7.1225      7.2217      7.3350      7.4635      7.6054      7.7554      7.9044    
  8.0399      8.1490      8.2198      8.2443      8.2198      8.1490      8.0399      7.9044      7.7554      7.6054    
  7.4635      7.3350      7.2217      7.1225      7.0356      6.9597      6.8941      6.8394      6.8785      6.8447    
  6.8221      6.8107      6.8107      6.8221      6.8447      6.8785      6.9232      6.9789      7.0460      7.1259    
  7.2212      7.3350      7.4699      7.6257      7.7985      7.9788      8.1528      8.3038      8.4154      8.4748    
  8.4748      8.4154      8.3038      8.1528      7.9788      7.7985      7.6257      7.4699      7.3350      7.2212    
  7.1259      7.0460      6.9789      6.9232      6.9673      6.9334      6.9093      6.8948      6.8899      6.8948    
  6.9093      6.9334      6.9673      7.0112      7.0665      7.1354      7.2215      7.3295      7.4635      7.6257    
  7.8141      8.0204      8.2303      8.4246      8.5828      8.6864      8.7225      8.6864      8.5828      8.4246    
  8.2303      8.0204      7.8141      7.6257      7.4635      7.3295      7.2215      7.1354      7.0665      7.0112    
  7.0592      7.0277      7.0047      6.9894      6.9817      6.9817      6.9894      7.0047      7.0277      7.0592    
  7.1006      7.1550      7.2269      7.3221      7.4468      7.6054      7.7985      8.0204      8.2578      8.4909    
  8.6960      8.8493      8.9314      8.9314      8.8493      8.6960      8.4909      8.2578      8.0204      7.7985    
  7.6054      7.4468      7.3221      7.2269      7.1550      7.1006      7.1513      7.1244      7.1051      7.0918    
  7.0839      7.0812      7.0839      7.0918      7.1051      7.1244      7.1513      7.1891      7.2428      7.3193    
  7.4263      7.5704      7.7554      7.9788      8.2303      8.4909      8.7360      8.9381      9.0715      9.1182    
  9.0715      8.9381      8.7360      8.4909      8.2303      7.9788      7.7554      7.5704      7.4263      7.3193    
  7.2428      7.1891      7.2411      7.2205      7.2076      7.1993      7.1941      7.1916      7.1916      7.1941    
  7.1993      7.2076      7.2205      7.2411      7.2745      7.3282      7.4107      7.5308      7.6949      7.9044    
  8.1528      8.4246      8.6960      8.9381      9.1209      9.2194      9.2194      9.1209      8.9381      8.6960    
  8.4246      8.1528      7.9044      7.6949      7.5308      7.4107      7.3282      7.2745      7.3257      7.3129    
  7.3089      7.3089      7.3101      7.3110      7.3113      7.3110      7.3101      7.3089      7.3089      7.3129    
  7.3257      7.3546      7.4086      7.4977      7.6305      7.8118      8.0399      8.3038      8.5828      8.8493    
  9.0715      9.2194      9.2713      9.2194      9.0715      8.8493      8.5828      8.3038      8.0399      7.8118    
  7.6305      7.4977      7.4086      7.3546      7.4027      7.3986      7.4056      7.4171      7.4284      7.4370    
  7.4415      7.4415      7.4370      7.4284      7.4171      7.4056      7.3986      7.4027      7.4268      7.4812    
  7.5759      7.7186      7.9115      8.1490      8.4154      8.6864      8.9314      9.1182      9.2194      9.2194    
  9.1182      8.9314      8.6864      8.4154      8.1490      7.9115      7.7186      7.5759      7.4812      7.4268    
  7.4695      7.4746      7.4942      7.5198      7.5452      7.5660      7.5794      7.5840      7.5794      7.5660    
  7.5452      7.5198      7.4942      7.4746      7.4695      7.4886      7.5426      7.6405      7.7881      7.9844    
  8.2198      8.4748      8.7225      8.9314      9.0715      9.1209      9.0715      8.9314      8.7225      8.4748    
  8.2198      7.9844      7.7881      7.6405      7.5426      7.4886      7.5239      7.5384      7.5711      7.6128    
  7.6555      7.6931      7.7207      7.7353      7.7353      7.7207      7.6931      7.6555      7.6128      7.5711    
  7.5384      7.5239      7.5376      7.5894      7.6867      7.8327      8.0229      8.2443      8.4748      8.6864    
  8.8493      8.9381      8.9381      8.8493      8.6864      8.4748      8.2443      8.0229      7.8327      7.6867    
  7.5894      7.5376      7.5641      7.5879      7.6337      7.6920      7.7542      7.8121      7.8591      7.8896    
  7.9001      7.8896      7.8591      7.8121      7.7542      7.6920      7.6337      7.5879      7.5641      7.5716    
  7.6187      7.7108      7.8480      8.0229      8.2198      8.4154      8.5828      8.6960      8.7360      8.6960    
  8.5828      8.4154      8.2198      8.0229      7.8480      7.7108      7.6187      7.5716      7.5888      7.6218    
  7.6798      7.7543      7.8363      7.9168      7.9871      8.0392      8.0670      8.0670      8.0392      7.9871    
  7.9168      7.8363      7.7543      7.6798      7.6218      7.5888      7.5890      7.6287      7.7108      7.8327    
  7.9844      8.1490      8.3038      8.4246      8.4909      8.4909      8.4246      8.3038      8.1490      7.9844    
  7.8327      7.7108      7.6287      7.5890      7.5971      7.6389      7.7081      7.7972      7.8979      8.0012    
  8.0970      8.1750      8.2262      8.2440      8.2262      8.1750      8.0970      8.0012      7.8979      7.7972    
  7.7081      7.6389      7.5971      7.5890      7.6187      7.6867      7.7881      7.9115      8.0399      8.1528    
  8.2303      8.2578      8.2303      8.1528      8.0399      7.9115      7.7881      7.6867      7.6187      7.5890    
  7.5888      7.6389      7.7176      7.8190      7.9361      8.0604      8.1815      8.2876      8.3667      8.4091    
  8.4091      8.3667      8.2875      8.1815      8.0604      7.9361      7.8190      7.7176      7.6389      7.5888    
  7.5716      7.5894      7.6405      7.7186      7.8118      7.9044      7.9788      8.0204      8.0204      7.9788    
  7.9044      7.8118      7.7186      7.6405      7.5894      7.5716      7.5641      7.6218      7.7081      7.8190    
  7.9490      8.0909      8.2347      8.3681      8.4772      8.5491      8.5741      8.5491      8.4772      8.3681    
  8.2347      8.0909      7.9490      7.8190      7.7081      7.6218      7.5641      7.5376      7.5426      7.5759    
  7.6305      7.6949      7.7554      7.7985      7.8141      7.7985      7.7554      7.6949      7.6305      7.5759    
  7.5426      7.5376      7.5239      7.5879      7.6798      7.7972      7.9361      8.0909      8.2529      8.4102    
  8.5481      8.6511      8.7064      8.7064      8.6511      8.5480      8.4102      8.2529      8.0909      7.9361    
  7.7972      7.6798      7.5879      7.5239      7.4886      7.4812      7.4977      7.5308      7.5704      7.6054    
  7.6257      7.6257      7.6054      7.5704      7.5308      7.4977      7.4812      7.4886      7.4695      7.5384    
  7.6337      7.7543      7.8979      8.0604      8.2347      8.4102      8.5724      8.7050      8.7923      8.8228    
  8.7923      8.7050      8.5724      8.4102      8.2347      8.0604      7.8979      7.7543      7.6337      7.5384    
  7.4695      7.4268      7.4086      7.4107      7.4263      7.4468      7.4635      7.4699      7.4635      7.4468    
  7.4263      7.4107      7.4086      7.4268      7.4027      7.4746      7.5711      7.6920      7.8363      8.0012    
  8.1815      8.3681      8.5481      8.7050      8.8221      8.8847      8.8847      8.8221      8.7050      8.5481    
  8.3681      8.1815      8.0012      7.8363      7.6920      7.5711      7.4746      7.4027      7.3546      7.3282    
  7.3193      7.3221      7.3295      7.3350      7.3350      7.3295      7.3221      7.3193      7.3282      7.3546    
  7.3257      7.3986      7.4942      7.6128      7.7542      7.9168      8.0970      8.2875      8.4772      8.6511    
  8.7923      8.8847      8.9170      8.8847      8.7923      8.6511      8.4772      8.2875      8.0970      7.9168    
  7.7542      7.6128      7.4942      7.3986      7.3257      7.2745      7.2428      7.2269      7.2215      7.2212    
  7.2217      7.2212      7.2215      7.2269      7.2428      7.2745      7.2411      7.3129      7.4056      7.5198    
  7.6555      7.8121      7.9871      8.1750      8.3667      8.5491      8.7064      8.8228      8.8847      8.8847    
  8.8228      8.7064      8.5491      8.3667      8.1750      7.9871      7.8121      7.6555      7.5198      7.4056    
  7.3129      7.2411      7.1891      7.1550      7.1354      7.1259      7.1225      7.1225      7.1259      7.1354    
  7.1550      7.1891      7.1513      7.2205      7.3089      7.4171      7.5452      7.6931      7.8591      8.0392    
  8.2262      8.4091      8.5741      8.7064      8.7923      8.8221      8.7923      8.7064      8.5741      8.4091    
  8.2262      8.0392      7.8591      7.6931      7.5452      7.4171      7.3089      7.2205      7.1513      7.1006    
  7.0665      7.0460      7.0356      7.0325      7.0356      7.0460      7.0665      7.1006      7.0592      7.1244    
  7.2076      7.3089      7.4284      7.5660      7.7207      7.8896      8.0670      8.2440      8.4091      8.5491    
  8.6511      8.7050      8.7050      8.6511      8.5491      8.4091      8.2440      8.0670      7.8896      7.7207    
  7.5660      7.4284      7.3089      7.2076      7.1244      7.0592      7.0112      6.9789      6.9597      6.9509    
  6.9509      6.9597      6.9789      7.0112      6.9673      7.0277      7.1051      7.1993      7.3100      7.4370    
  7.5794      7.7353      7.9001      8.0670      8.2262      8.3667      8.4772      8.5481      8.5724      8.5481    
  8.4772      8.3667      8.2262      8.0670      7.9001      7.7353      7.5794      7.4370      7.3101      7.1993    
  7.1051      7.0277      6.9673      6.9232      6.8941      6.8780      6.8728      6.8780      6.8941      6.9232    
  6.8785      6.9334      7.0047      7.0918      7.1941      7.3110      7.4415      7.5840      7.7353      7.8896    
  8.0392      8.1750      8.2875      8.3681      8.4102      8.4102      8.3681      8.2875      8.1750      8.0392    
  7.8896      7.7353      7.5840      7.4415      7.3110      7.1941      7.0918      7.0047      6.9334      6.8785    
  6.8394      6.8148      6.8031      6.8031      6.8148      6.8394      6.7961      6.8447      6.9093      6.9894    
  7.0839      7.1916      7.3113      7.4415      7.5794      7.7207      7.8591      7.9871      8.0970      8.1815    
  8.2347      8.2529      8.2347      8.1815      8.0970      7.9871      7.8591      7.7207      7.5794      7.4415    
  7.3113      7.1916      7.0839      6.9894      6.9093      6.8447      6.7961      6.7628      6.7438      6.7376    
  6.7438      6.7628      6.7233      6.7648      6.8221      6.8948      6.9817      7.0812      7.1916      7.3110    
  7.4370      7.5660      7.6931      7.8121      7.9168      8.0012      8.0604      8.0909      8.0909      8.0604    
  8.0012      7.9168      7.8121      7.6931      7.5660      7.4370      7.3110      7.1916      7.0812      6.9817    
  6.8948      6.8221      6.7648      6.7233      6.6968      6.6839      6.6839      6.6968      6.6630      6.6968    