unknown system                          
   1.00000000000000     
     1.599243   -2.769970    0.000000
     1.599243    2.769970    0.000000
     0.000000    0.000000    5.075185
   Hf
     2
Direct
  0.666667  0.333333  0.250000
  0.333333  0.666667  0.750000
 
   36   36   56
 0.65651902044E+01 0.65709433308E+01 0.65887310584E+01 0.66197718009E+01 0.66650933305E+01
 0.67246593280E+01 0.67969813075E+01 0.68793581748E+01 0.69684968422E+01 0.70610915565E+01
 0.71540751123E+01 0.72445631284E+01 0.73297318732E+01 0.74068391341E+01 0.74733926511E+01
 0.75273173966E+01 0.75670096842E+01 0.75913100823E+01 0.75994943655E+01 0.75913119856E+01
 0.75670130852E+01 0.75273216432E+01 0.74733970800E+01 0.74068432631E+01 0.73297354642E+01
 0.72445661168E+01 0.71540774836E+01 0.70610932661E+01 0.69684978267E+01 0.68793584240E+01
 0.67969809260E+01 0.67246585336E+01 0.66650923902E+01 0.66197709479E+01 0.65887304415E+01
 0.65709430143E+01 0.65709427112E+01 0.65709428866E+01 0.65827252526E+01 0.66072249377E+01
 0.66456439219E+01 0.66985167961E+01 0.67650540432E+01 0.68430932243E+01 0.69295870144E+01
 0.70212521798E+01 0.71149896460E+01 0.72079357608E+01 0.72973028029E+01 0.73802782294E+01
 0.74541168049E+01 0.75163428041E+01 0.75649017959E+01 0.75982067949E+01 0.76151505263E+01
 0.76151520580E+01 0.75982113003E+01 0.75649080767E+01 0.75163484480E+01 0.74541207788E+01
 0.73802819598E+01 0.72973072300E+01 0.72079393673E+01 0.71149910861E+01 0.70212526578E+01
 0.69295879659E+01 0.68430936522E+01 0.67650524523E+01 0.66985140822E+01 0.66456420922E+01
 0.66072243211E+01 0.65827249544E+01 0.65887295633E+01 0.65827246643E+01 0.65887303855E+01
 0.66072242256E+01 0.66392914256E+01 0.66857884209E+01 0.67465291661E+01 0.68199612744E+01
 0.69034549228E+01 0.69939391448E+01 0.70884528490E+01 0.71843180026E+01 0.72789582714E+01
 0.73696328135E+01 0.74533543431E+01 0.75270511574E+01 0.75878343515E+01 0.76332199213E+01
 0.76612804330E+01 0.76707777260E+01 0.76612826570E+01 0.76332248028E+01 0.75878400072E+01
 0.75270549078E+01 0.74533568833E+01 0.73696367005E+01 0.72789627833E+01 0.71843201130E+01
 0.70884527876E+01 0.69939399745E+01 0.69034567982E+01 0.68199612145E+01 0.67465266944E+01
 0.66857864567E+01 0.66392912018E+01 0.66072240035E+01 0.66197702616E+01 0.66072240748E+01
 0.66072251962E+01 0.66197714769E+01 0.66456420720E+01 0.66857868614E+01 0.67404868365E+01
 0.68088081686E+01 0.68886541173E+01 0.69773120778E+01 0.70720905885E+01 0.71706347208E+01
 0.72707741945E+01 0.73700955541E+01 0.74655958243E+01 0.75536640081E+01 0.76303759342E+01
 0.76919201046E+01 0.77350028944E+01 0.77571920653E+01 0.77571918548E+01 0.77350039072E+01
 0.76919236177E+01 0.76303795278E+01 0.75536657840E+01 0.74655978779E+01 0.73700994636E+01
 0.72707773721E+01 0.71706351477E+01 0.70720907422E+01 0.69773141113E+01 0.68886556443E+01
 0.68088069940E+01 0.67404853707E+01 0.66857875536E+01 0.66456428916E+01 0.66650927381E+01
 0.66456424563E+01 0.66392924602E+01 0.66456447033E+01 0.66650933996E+01 0.66985148252E+01
 0.67465277645E+01 0.68088082591E+01 0.68838942609E+01 0.69695690532E+01 0.70635208869E+01
 0.71638079727E+01 0.72688100247E+01 0.73767054953E+01 0.74848313995E+01 0.75893403828E+01
 0.76853487099E+01 0.77674770539E+01 0.78305524562E+01 0.78702906252E+01 0.78838645826E+01
 0.78702890198E+01 0.78305532472E+01 0.77674808374E+01 0.76853518843E+01 0.75893419285E+01
 0.74848339309E+01 0.73767092559E+01 0.72688121918E+01 0.71638082732E+01 0.70635218397E+01
 0.69695704910E+01 0.68838936470E+01 0.68088063479E+01 0.67465277804E+01 0.66985162239E+01
 0.67246596840E+01 0.66985149906E+01 0.66857872996E+01 0.66857889502E+01 0.66985174798E+01
 0.67246601226E+01 0.67650537701E+01 0.68199618872E+01 0.68886556752E+01 0.69695701057E+01
 0.70608989771E+01 0.71611814880E+01 0.72694237311E+01 0.73845959260E+01 0.75047567811E+01
 0.76263048582E+01 0.77437791961E+01 0.78503144512E+01 0.79385573600E+01 0.80017495697E+01
 0.80347361556E+01 0.80347348036E+01 0.80017484953E+01 0.79385601621E+01 0.78503191590E+01
 0.77437821939E+01 0.76263068699E+01 0.75047601332E+01 0.73845995302E+01 0.72694254428E+01
 0.71611821174E+01 0.70608997847E+01 0.69695696966E+01 0.68886532280E+01 0.68199598743E+01
 0.67650537548E+01 0.67969817146E+01 0.67650532564E+01 0.67465269084E+01 0.67404858835E+01
 0.67465289595E+01 0.67650549033E+01 0.67969825111E+01 0.68430944949E+01 0.69034567602E+01
 0.69773138866E+01 0.70635218530E+01 0.71611818315E+01 0.72699564097E+01 0.73897116414E+01
 0.75195429419E+01 0.76566464988E+01 0.77956256450E+01 0.79286042564E+01 0.80461371872E+01
 0.81386201742E+01 0.81978201303E+01 0.82182022338E+01 0.81978193795E+01 0.81386212931E+01
 0.80461404430E+01 0.79286070595E+01 0.77956272357E+01 0.76566488098E+01 0.75195464368E+01
 0.73897144203E+01 0.72699578087E+01 0.71611829835E+01 0.70635224778E+01 0.69773124507E+01
 0.69034539508E+01 0.68430926755E+01 0.68793580645E+01 0.68430937441E+01 0.68199609365E+01
 0.68088069840E+01 0.68088073099E+01 0.68199615048E+01 0.68430943387E+01 0.68793593801E+01
 0.69295883525E+01 0.69939400245E+01 0.70720908332E+01 0.71638081773E+01 0.72694244208E+01
 0.73897121545E+01 0.75249853979E+01 0.76737279375E+01 0.78313794617E+01 0.79898884941E+01
 0.81383070764E+01 0.82642878140E+01 0.83560703281E+01 0.84044734676E+01 0.84044737387E+01
 0.83560712032E+01 0.82642888915E+01 0.81383074355E+01 0.79898882575E+01 0.78313801541E+01
 0.76737302802E+01 0.75249881425E+01 0.73897141053E+01 0.72694260004E+01 0.71638097946E+01
 0.70720914156E+01 0.69939387276E+01 0.69295862818E+01 0.69684967719E+01 0.69295872652E+01
 0.69034561918E+01 0.68886556289E+01 0.68838947138E+01 0.68886549983E+01 0.69034560964E+01
 0.69295883423E+01 0.69684982502E+01 0.70212528427E+01 0.70884526431E+01 0.71706344866E+01
 0.72688107453E+01 0.73845971697E+01 0.75195434911E+01 0.76737275852E+01 0.78441396534E+01
 0.80235857215E+01 0.82006739182E+01 0.83610355464E+01 0.84895066818E+01 0.85727281681E+01
 0.86015527276E+01 0.85727291553E+01 0.84895070578E+01 0.83610344555E+01 0.82006724914E+01
 0.80235856242E+01 0.78441412244E+01 0.76737298706E+01 0.75195455233E+01 0.73845986940E+01
 0.72688119635E+01 0.71706354636E+01 0.70884529976E+01 0.70212521245E+01 0.70610925516E+01
 0.70212515592E+01 0.69939389865E+01 0.69773140624E+01 0.69695717074E+01 0.69695712691E+01
 0.69773139462E+01 0.69939405054E+01 0.70212535902E+01 0.70610933995E+01 0.71149909500E+01
 0.71843191460E+01 0.72707755671E+01 0.73767071412E+01 0.75047580947E+01 0.76566467333E+01
 0.78313779150E+01 0.80235837196E+01 0.82227447331E+01 0.84137698140E+01 0.85789562481E+01
 0.87009127503E+01 0.87657469349E+01 0.87657474489E+01 0.87009130615E+01 0.85789550866E+01
 0.84137685724E+01 0.82227454158E+01 0.80235859353E+01 0.78313800556E+01 0.76566484845E+01
 0.75047597667E+01 0.73767081472E+01 0.72707755149E+01 0.71843189044E+01 0.71149909416E+01
 0.71540774283E+01 0.71149900200E+01 0.70884513166E+01 0.70720901760E+01 0.70635226264E+01
 0.70609007561E+01 0.70635225497E+01 0.70720916189E+01 0.70884538519E+01 0.71149914568E+01
 0.71540776754E+01 0.72079389653E+01 0.72789613656E+01 0.73700977615E+01 0.74848329735E+01
 0.76263066748E+01 0.77956267925E+01 0.79898869124E+01 0.82006709569E+01 0.84137681718E+01
 0.86104753560E+01 0.87703707810E+01 0.88749721175E+01 0.89113823736E+01 0.88749725076E+01
 0.87703701248E+01 0.86104743122E+01 0.84137689927E+01 0.82006733874E+01 0.79898885143E+01
 0.77956273021E+01 0.76263080297E+01 0.74848350702E+01 0.73700983409E+01 0.72789602072E+01
 0.72079381264E+01 0.72445660727E+01 0.72079384351E+01 0.71843183158E+01 0.71706338225E+01
 0.71638080295E+01 0.71611821262E+01 0.71611818675E+01 0.71638082837E+01 0.71706352949E+01
 0.71843193740E+01 0.72079380978E+01 0.72445660275E+01 0.72973065959E+01 0.73696356205E+01
 0.74655971015E+01 0.75893420970E+01 0.77437831326E+01 0.79286079489E+01 0.81383076875E+01
 0.83610342562E+01 0.85789549937E+01 0.87703702996E+01 0.89133154723E+01 0.89898413855E+01
 0.89898416579E+01 0.89133154130E+01 0.87703694178E+01 0.85789547879E+01 0.83610352021E+01
 0.81383076561E+01 0.79286061714E+01 0.77437824295E+01 0.75893443203E+01 0.74655996906E+01
 0.73696357591E+01 0.72973055364E+01 0.73297348763E+01 0.72973062359E+01 0.72789610075E+01
 0.72707756934E+01 0.72688111105E+01 0.72694245179E+01 0.72699562282E+01 0.72694238317E+01
 0.72688108648E+01 0.72707756444E+01 0.72789599598E+01 0.72973047427E+01 0.73297344331E+01
 0.73802810970E+01 0.74533560211E+01 0.75536648483E+01 0.76853513595E+01 0.78503197001E+01
 0.80461420031E+01 0.82642905395E+01 0.84895078503E+01 0.87009129453E+01 0.88749721776E+01
 0.89898416158E+01 0.90300048603E+01 0.89898418102E+01 0.88749716774E+01 0.87009119298E+01
 0.84895070430E+01 0.82642891748E+01 0.80461391618E+01 0.78503171255E+01 0.76853517116E+01
 0.75536674890E+01 0.74533578318E+01 0.73802812364E+01 0.74068425000E+01 0.73802807685E+01
 0.73696350855E+01 0.73700980290E+01 0.73767081920E+01 0.73845981712E+01 0.73897126498E+01
 0.73897121323E+01 0.73845971134E+01 0.73767072532E+01 0.73700971013E+01 0.73696338885E+01
 0.73802796184E+01 0.74068416860E+01 0.74541196789E+01 0.75270533876E+01 0.76303772969E+01
 0.77674790219E+01 0.79385602157E+01 0.81386232742E+01 0.83560735996E+01 0.85727305156E+01
 0.87657478005E+01 0.89113827659E+01 0.89898423336E+01 0.89898425125E+01 0.89113828663E+01
 0.87657471701E+01 0.85727291108E+01 0.83560717573E+01 0.81386213076E+01 0.79385586983E+01
 0.77674787252E+01 0.76303782543E+01 0.75270546592E+01 0.74541205681E+01 0.74733968081E+01
 0.74541195472E+01 0.74533551853E+01 0.74655966525E+01 0.74848333351E+01 0.75047588635E+01
 0.75195442016E+01 0.75249860644E+01 0.75195437781E+01 0.75047577067E+01 0.74848321244E+01
 0.74655963864E+01 0.74533553229E+01 0.74541188152E+01 0.74733956047E+01 0.75163470720E+01
 0.75878382435E+01 0.76919217048E+01 0.78305521980E+01 0.80017491676E+01 0.81978215117E+01
 0.84044760870E+01 0.86015542513E+01 0.87657476904E+01 0.88749728444E+01 0.89133164873E+01
 0.88749730174E+01 0.87657479552E+01 0.86015538212E+01 0.84044745120E+01 0.81978200844E+01
 0.80017494390E+01 0.78305534739E+01 0.76919220816E+01 0.75878377150E+01 0.75163472881E+01
 0.75273216038E+01 0.75163473892E+01 0.75270529135E+01 0.75536640503E+01 0.75893411900E+01
 0.76263057702E+01 0.76566461012E+01 0.76737274102E+01 0.76737278976E+01 0.76566460105E+01
 0.76263038938E+01 0.75893397468E+01 0.75536645657E+01 0.75270529773E+01 0.75163453092E+01
 0.75273201544E+01 0.75649073615E+01 0.76332250660E+01 0.77350047167E+01 0.78702898880E+01
 0.80347357953E+01 0.82182036632E+01 0.84044751700E+01 0.85727294800E+01 0.87009132603E+01
 0.87703707624E+01 0.87703702374E+01 0.87009128712E+01 0.85727300239E+01 0.84044748934E+01
 0.82182019548E+01 0.80347352662E+01 0.78702916393E+01 0.77350056515E+01 0.76332232749E+01
 0.75649058582E+01 0.75670121204E+01 0.75649070993E+01 0.75878380963E+01 0.76303769240E+01
 0.76853500367E+01 0.77437809876E+01 0.77956248308E+01 0.78313767801E+01 0.78441388232E+01
 0.78313780016E+01 0.77956235452E+01 0.77437775537E+01 0.76853485386E+01 0.76303771222E+01
 0.75878360169E+01 0.75649034705E+01 0.75670117773E+01 0.75982119501E+01 0.76612849556E+01
 0.77571943816E+01 0.78838661780E+01 0.80347369460E+01 0.81978210531E+01 0.83560717890E+01
 0.84895080028E+01 0.85789565435E+01 0.86104746682E+01 0.85789541892E+01 0.84895074262E+01
 0.83560730420E+01 0.81978201403E+01 0.80347339845E+01 0.78838652208E+01 0.77571952390E+01
 0.76612836104E+01 0.75982090371E+01 0.75913095444E+01 0.75982101564E+01 0.76332238871E+01
 0.76919210798E+01 0.77674778722E+01 0.78503176363E+01 0.79286058430E+01 0.79898856037E+01
 0.80235828221E+01 0.80235842286E+01 0.79898862404E+01 0.79286022193E+01 0.78503136166E+01
 0.77674774178E+01 0.76919209002E+01 0.76332205184E+01 0.75982071830E+01 0.75913106567E+01
 0.76151525883E+01 0.76707797755E+01 0.77571945729E+01 0.78702926520E+01 0.80017510644E+01
 0.81386217466E+01 0.82642896818E+01 0.83610370397E+01 0.84137702308E+01 0.84137678264E+01
 0.83610341108E+01 0.82642908197E+01 0.81386231184E+01 0.80017479553E+01 0.78702883366E+01
 0.77571936863E+01 0.76707799601E+01 0.76151505545E+01 0.75994915824E+01 0.76151509486E+01
 0.76612834052E+01 0.77350030903E+01 0.78305503619E+01 0.79385583005E+01 0.80461402619E+01
 0.81383062053E+01 0.82006695759E+01 0.82227432262E+01 0.82006721803E+01 0.81383052001E+01
 0.80461354576E+01 0.79385561556E+01 0.78305519926E+01 0.77350029571E+01 0.76612804284E+01
 0.76151499279E+01 0.75994931617E+01 0.76151506147E+01 0.76612819661E+01 0.77350054975E+01
 0.78305554622E+01 0.79385601754E+01 0.80461394666E+01 0.81383087063E+01 0.82006749726E+01
 0.82227454128E+01 0.82006714344E+01 0.81383079487E+01 0.80461418763E+01 0.79385595630E+01
 0.78305510264E+01 0.77350031128E+01 0.76612830358E+01 0.76151506054E+01 0.75913088448E+01
 0.76151502528E+01 0.76707798640E+01 0.77571933663E+01 0.78702873975E+01 0.80017462765E+01
 0.81386208979E+01 0.82642884039E+01 0.83610317409E+01 0.84137654743E+01 0.84137676298E+01
 0.83610338856E+01 0.82642858751E+01 0.81386175198E+01 0.80017469080E+01 0.78702890854E+01
 0.77571919103E+01 0.76707780419E+01 0.76151516329E+01 0.75913103647E+01 0.75982076142E+01
 0.76332218600E+01 0.76919232685E+01 0.77674806629E+01 0.78503172873E+01 0.79286057253E+01
 0.79898891093E+01 0.80235862910E+01 0.80235842137E+01 0.79898865962E+01 0.79286066240E+01
 0.78503181860E+01 0.77674780199E+01 0.76919206959E+01 0.76332230615E+01 0.75982092109E+01
 0.75670106490E+01 0.75982079403E+01 0.76612828888E+01 0.77571945757E+01 0.78838641694E+01
 0.80347322507E+01 0.81978177595E+01 0.83560703337E+01 0.84895047669E+01 0.85789517604E+01
 0.86104723402E+01 0.85789539644E+01 0.84895048354E+01 0.83560679485E+01 0.81978167990E+01
 0.80347327701E+01 0.78838625647E+01 0.77571915977E+01 0.76612830050E+01 0.75982107083E+01
 0.75670111858E+01 0.75649036319E+01 0.75878371084E+01 0.76303791940E+01 0.76853513562E+01
 0.77437806139E+01 0.77956262683E+01 0.78313799774E+01 0.78441399547E+01 0.78313772442E+01
 0.77956248935E+01 0.77437808040E+01 0.76853495737E+01 0.76303760538E+01 0.75878367860E+01
 0.75649055356E+01 0.75273193496E+01 0.75649038141E+01 0.76332216612E+01 0.77350043868E+01
 0.78702903825E+01 0.80347336429E+01 0.82181998068E+01 0.84044723749E+01 0.85727274849E+01
 0.87009106119E+01 0.87703682954E+01 0.87703688665E+01 0.87009109791E+01 0.85727264765E+01
 0.84044714114E+01 0.82181994606E+01 0.80347316519E+01 0.78702862571E+01 0.77350018243E+01
 0.76332229047E+01 0.75649058372E+01 0.75273192555E+01 0.75163451571E+01 0.75270537143E+01
 0.75536661691E+01 0.75893419206E+01 0.76263061317E+01 0.76566478001E+01 0.76737289328E+01
 0.76737276801E+01 0.76566458063E+01 0.76263051321E+01 0.75893402892E+01 0.75536628055E+01
 0.75270512162E+01 0.75163452826E+01 0.74733939804E+01 0.75163443371E+01 0.75878350316E+01
 0.76919198789E+01 0.78305516737E+01 0.80017477591E+01 0.81978182608E+01 0.84044724893E+01
 0.86015517789E+01 0.87657461579E+01 0.88749715952E+01 0.89133152938E+01 0.88749714856E+01
 0.87657457140E+01 0.86015513890E+01 0.84044724081E+01 0.81978173978E+01 0.80017451262E+01
 0.78305486332E+01 0.76919187853E+01 0.75878359392E+01 0.75163453080E+01 0.74733944005E+01
 0.74541182950E+01 0.74533555903E+01 0.74655973676E+01 0.74848335103E+01 0.75047590495E+01
 0.75195446820E+01 0.75249863451E+01 0.75195439117E+01 0.75047581744E+01 0.74848323623E+01
 0.74655953518E+01 0.74533534010E+01 0.74541171822E+01 0.74068395746E+01 0.74541170798E+01
 0.75270510400E+01 0.76303749583E+01 0.77674760113E+01 0.79385565498E+01 0.81386195309E+01
 0.83560701705E+01 0.85727276786E+01 0.87657459908E+01 0.89113820333E+01 0.89898419553E+01
 0.89898417550E+01 0.89113817293E+01 0.87657459266E+01 0.85727276772E+01 0.83560699978E+01
 0.81386193482E+01 0.79385564379E+01 0.77674757028E+01 0.76303745141E+01 0.75270510676E+01
 0.74541177540E+01 0.74068401989E+01 0.73802786957E+01 0.73696336129E+01 0.73700973885E+01
 0.73767078370E+01 0.73845976539E+01 0.73897123721E+01 0.73897125076E+01 0.73845977112E+01
 0.73767074923E+01 0.73700970469E+01 0.73696336292E+01 0.73802786127E+01 0.73297324611E+01
 0.73802778634E+01 0.74533538073E+01 0.75536633433E+01 0.76853479758E+01 0.78503141254E+01
 0.80461369499E+01 0.82642876178E+01 0.84895059742E+01 0.87009112493E+01 0.88749713380E+01
 0.89898417211E+01 0.90300047988E+01 0.89898412287E+01 0.88749710950E+01 0.87009109472E+01
 0.84895049879E+01 0.82642871294E+01 0.80461384873E+01 0.78503164491E+01 0.76853485353E+01
 0.75536624062E+01 0.74533538346E+01 0.73802791064E+01 0.73297327098E+01 0.72973034299E+01
 0.72789591466E+01 0.72707752773E+01 0.72688107621E+01 0.72694237832E+01 0.72699561025E+01
 0.72694242935E+01 0.72688108066E+01 0.72707752498E+01 0.72789602094E+01 0.72973047610E+01
 0.72445646556E+01 0.72973029786E+01 0.73696321107E+01 0.74655953504E+01 0.75893399003E+01
 0.77437785218E+01 0.79286031480E+01 0.81383056027E+01 0.83610339912E+01 0.85789542092E+01
 0.87703692700E+01 0.89133155117E+01 0.89898417898E+01 0.89898412766E+01 0.89133148256E+01
 0.87703688987E+01 0.85789528146E+01 0.83610315075E+01 0.81383047359E+01 0.79286051574E+01
 0.77437807006E+01 0.75893400009E+01 0.74655951694E+01 0.73696336866E+01 0.72973046264E+01
 0.72445641373E+01 0.72079364620E+01 0.71843181112E+01 0.71706344083E+01 0.71638076915E+01
 0.71611814812E+01 0.71611819069E+01 0.71638079692E+01 0.71706338593E+01 0.71843182445E+01
 0.72079378950E+01 0.71540771620E+01 0.72079368354E+01 0.72789576538E+01 0.73700946387E+01
 0.74848306830E+01 0.76263036126E+01 0.77956234648E+01 0.79898856277E+01 0.82006715232E+01
 0.84137679916E+01 0.86104739092E+01 0.87703700461E+01 0.88749725022E+01 0.89113822034E+01
 0.88749715582E+01 0.87703696655E+01 0.86104736467E+01 0.84137660102E+01 0.82006686355E+01
 0.79898847587E+01 0.77956250154E+01 0.76263052644E+01 0.74848317241E+01 0.73700964055E+01
 0.72789597351E+01 0.72079370777E+01 0.71540757006E+01 0.71149896081E+01 0.70884522843E+01
 0.70720903970E+01 0.70635216834E+01 0.70609002525E+01 0.70635225011E+01 0.70720904039E+01
 0.70884517486E+01 0.71149903321E+01 0.70610932104E+01 0.71149909450E+01 0.71843178034E+01
 0.72707731068E+01 0.73767045907E+01 0.75047555516E+01 0.76566442593E+01 0.78313763954E+01
 0.80235831667E+01 0.82227435727E+01 0.84137674725E+01 0.85789544542E+01 0.87009126236E+01
 0.87657469740E+01 0.87657462388E+01 0.87009117070E+01 0.85789548235E+01 0.84137681048E+01
 0.82227429665E+01 0.80235821820E+01 0.78313768209E+01 0.76566461031E+01 0.75047577221E+01
 0.73767066869E+01 0.72707747274E+01 0.71843177955E+01 0.71149891755E+01 0.70610914243E+01
 0.70212516570E+01 0.69939387970E+01 0.69773125767E+01 0.69695703187E+01 0.69695712475E+01
 0.69773141346E+01 0.69939395359E+01 0.70212523649E+01 0.69684978970E+01 0.70212530689E+01
 0.70884532376E+01 0.71706345687E+01 0.72688097665E+01 0.73845953777E+01 0.75195415661E+01
 0.76737258697E+01 0.78441376835E+01 0.80235828122E+01 0.82006704249E+01 0.83610329809E+01
 0.84895059594E+01 0.85727282306E+01 0.86015518150E+01 0.85727271532E+01 0.84895055113E+01
 0.83610342576E+01 0.82006726583E+01 0.80235847191E+01 0.78441391245E+01 0.76737276053E+01
 0.75195439115E+01 0.73845976465E+01 0.72688108815E+01 0.71706340073E+01 0.70884514988E+01
 0.70212511912E+01 0.69684963510E+01 0.69295864478E+01 0.69034544001E+01 0.68886536450E+01
 0.68838938294E+01 0.68886553221E+01 0.69034565101E+01 0.69295881230E+01 0.68793591945E+01
 0.69295876464E+01 0.69939398570E+01 0.70720917945E+01 0.71638090273E+01 0.72694239578E+01
 0.73897109802E+01 0.75249843762E+01 0.76737263942E+01 0.78313765761E+01 0.79898852243E+01
 0.81383050005E+01 0.82642869947E+01 0.83560697417E+01 0.84044726023E+01 0.84044725474E+01
 0.83560695253E+01 0.82642870707E+01 0.81383064173E+01 0.79898880448E+01 0.78313794054E+01
 0.76737284062E+01 0.75249863513E+01 0.73897133328E+01 0.72694254211E+01 0.71638086207E+01
 0.70720905225E+01 0.69939389986E+01 0.69295868240E+01 0.68793576195E+01 0.68430925860E+01
 0.68199599471E+01 0.68088061049E+01 0.68088062810E+01 0.68199608586E+01 0.68430943290E+01
 0.67969825635E+01 0.68430940134E+01 0.69034554340E+01 0.69773136036E+01 0.70635228159E+01
 0.71611821658E+01 0.72699557531E+01 0.73897113255E+01 0.75195426973E+01 0.76566448735E+01
 0.77956234809E+01 0.79286037430E+01 0.80461377133E+01 0.81386192228E+01 0.81978179785E+01
 0.82182014414E+01 0.81978198142E+01 0.81386201635E+01 0.80461373402E+01 0.79286045319E+01
 0.77956261239E+01 0.76566473224E+01 0.75195441841E+01 0.73897131934E+01 0.72699579657E+01
 0.71611830002E+01 0.70635223298E+01 0.69773135758E+01 0.69034557809E+01 0.68430930901E+01
 0.67969809374E+01 0.67650533717E+01 0.67465276385E+01 0.67404849295E+01 0.67465264748E+01
 0.67650534587E+01 0.67246601872E+01 0.67650548294E+01 0.68199613124E+01 0.68886546576E+01
 0.69695706562E+01 0.70608998480E+01 0.71611810223E+01 0.72694231661E+01 0.73845962773E+01
 0.75047562552E+01 0.76263027627E+01 0.77437782309E+01 0.78503156681E+01 0.79385574182E+01
 0.80017466932E+01 0.80347340095E+01 0.80347362718E+01 0.80017503503E+01 0.79385584939E+01
 0.78503156828E+01 0.77437804225E+01 0.76263061400E+01 0.75047582473E+01 0.73845976242E+01
 0.72694255232E+01 0.71611830716E+01 0.70609000219E+01 0.69695704119E+01 0.68886552515E+01
 0.68199609140E+01 0.67650524953E+01 0.67246587715E+01 0.66985162257E+01 0.66857879371E+01
 0.66857866713E+01 0.66985148856E+01 0.66650929826E+01 0.66985170042E+01 0.67465289941E+01
 0.68088077333E+01 0.68838948182E+01 0.69695710295E+01 0.70635214093E+01 0.71638067111E+01
 0.72688095381E+01 0.73767057198E+01 0.74848298280E+01 0.75893376317E+01 0.76853478031E+01
 0.77674773990E+01 0.78305508430E+01 0.78702879111E+01 0.78838648076E+01 0.78702919648E+01
 0.78305544982E+01 0.77674793394E+01 0.76853509005E+01 0.75893423601E+01 0.74848332405E+01
 0.73767073343E+01 0.72688118924E+01 0.71638097202E+01 0.70635222462E+01 0.69695697850E+01
 0.68838942824E+01 0.68088076728E+01 0.67465267889E+01 0.66985136934E+01 0.66650922963E+01
 0.66456437629E+01 0.66392917996E+01 0.66456421961E+01 0.66197703725E+01 0.66456434578E+01
 0.66857885347E+01 0.67404865912E+01 0.68088081499E+01 0.68886563654E+01 0.69773140576E+01
 0.70720896930E+01 0.71706330438E+01 0.72707743036E+01 0.73700956306E+01 0.74655935655E+01
 0.75536613670E+01 0.76303754768E+01 0.76919204574E+01 0.77350021029E+01 0.77571916627E+01
 0.77571934234E+01 0.77350054233E+01 0.76919232351E+01 0.76303791116E+01 0.75536668759E+01
 0.74655982946E+01 0.73700977298E+01 0.72707762007E+01 0.71706365587E+01 0.70720921061E+01
 0.69773130651E+01 0.68886544453E+01 0.68088078712E+01 0.67404860911E+01 0.66857859017E+01
 0.66456411023E+01 0.66197706384E+01 0.66072245866E+01 0.66072237821E+01 0.65887296233E+01
 0.66072244460E+01 0.66392920126E+01 0.66857875170E+01 0.67465277668E+01 0.68199619817E+01
 0.69034569446E+01 0.69939392703E+01 0.70884511343E+01 0.71843175341E+01 0.72789593853E+01
 0.73696326524E+01 0.74533524424E+01 0.75270504688E+01 0.75878361101E+01 0.76332220469E+01
 0.76612815290E+01 0.76707784195E+01 0.76612827552E+01 0.76332233487E+01 0.75878382174E+01
 0.75270548860E+01 0.74533576140E+01 0.73696355785E+01 0.72789606323E+01 0.71843200407E+01
 0.70884545238E+01 0.69939403170E+01 0.69034554659E+01 0.68199611809E+01 0.67465285750E+01
 0.66857875597E+01 0.66392905210E+01 0.66072234426E+01 0.65887298223E+01 0.65827243844E+01
 0.65709427437E+01 0.65827253241E+01 0.66072250185E+01 0.66456430328E+01 0.66985150784E+01
 0.67650532322E+01 0.68430939269E+01 0.69295875127E+01 0.70212513716E+01 0.71149889709E+01
 0.72079364845E+01 0.72973036582E+01 0.73802778166E+01 0.74541163016E+01 0.75163440672E+01
 0.75649043994E+01 0.75982089696E+01 0.76151515378E+01 0.76151519178E+01 0.75982097839E+01
 0.75649057662E+01 0.75163470639E+01 0.74541208146E+01 0.73802817193E+01 0.72973057371E+01
 0.72079381961E+01 0.71149915963E+01 0.70212535738E+01 0.69295877575E+01 0.68430932984E+01
 0.67650535619E+01 0.66985159798E+01 0.66456430178E+01 0.66072241436E+01 0.65827246862E+01
 0.65709426040E+01 0.65604884969E+01 0.65664651888E+01 0.65848674677E+01 0.66167642761E+01
 0.66629854348E+01 0.67232987008E+01 0.67960611852E+01 0.68784834294E+01 0.69672650769E+01
 0.70591826819E+01 0.71513344479E+01 0.72410499116E+01 0.73257049065E+01 0.74026739392E+01
 0.74694581107E+01 0.75238604874E+01 0.75640903558E+01 0.75888017426E+01 0.75971385382E+01
 0.75888034554E+01 0.75640937204E+01 0.75238649329E+01 0.74694627066E+01 0.74026781023E+01
 0.73257085468E+01 0.72410529527E+01 0.71513367280E+01 0.70591842648E+01 0.69672661079E+01
 0.68784837285E+01 0.67960605372E+01 0.67232974889E+01 0.66629843919E+01 0.66167636498E+01
 0.65848669971E+01 0.65664648235E+01 0.65664645673E+01 0.65664648498E+01 0.65788169624E+01
 0.66042226512E+01 0.66434978174E+01 0.66967544534E+01 0.67628438188E+01 0.68393690684E+01
 0.69232106575E+01 0.70112102646E+01 0.71006158509E+01 0.71891071077E+01 0.72745242170E+01
 0.73545864353E+01 0.74268096191E+01 0.74886269778E+01 0.75375931546E+01 0.75715877496E+01
 0.75890178917E+01 0.75890192527E+01 0.75715920517E+01 0.75375995864E+01 0.74886329508E+01
 0.74268137292E+01 0.73545901454E+01 0.72745286851E+01 0.71891107639E+01 0.71006172514E+01
 0.70112107583E+01 0.69232117382E+01 0.68393694735E+01 0.67628419223E+01 0.66967514757E+01
 0.66434960178E+01 0.66042221186E+01 0.65788165539E+01 0.65848659708E+01 0.65785115100E+01
 0.65848670557E+01 0.66042220951E+01 0.66371707040E+01 0.66839489216E+01 0.67438043518E+01
 0.68147950607E+01 0.68941370402E+01 0.69788768545E+01 0.70664807348E+01 0.71550110321E+01
 0.72428434626E+01 0.73281685806E+01 0.74086163144E+01 0.74812001737E+01 0.75425572069E+01
 0.75893505226E+01 0.76187252497E+01 0.76287461139E+01 0.76187274667E+01 0.75893556738E+01
 0.75425633204E+01 0.74812041513E+01 0.74086188272E+01 0.73281725725E+01 0.72428482781E+01
 0.71550132901E+01 0.70664805683E+01 0.69788776255E+01 0.68941389764E+01 0.68147949333E+01
 0.67438016660E+01 0.66839468523E+01 0.66371704724E+01 0.66042217025E+01 0.66167627071E+01
 0.66035505855E+01 0.66035518672E+01 0.66167641749E+01 0.66434961095E+01 0.66839474265E+01
 0.67376400528E+01 0.68030901990E+01 0.68779665276E+01 0.69596674137E+01 0.70459764590E+01
 0.71353902764E+01 0.72268999337E+01 0.73193403048E+01 0.74106838798E+01 0.74976672963E+01
 0.75759196008E+01 0.76405106769E+01 0.76867221792E+01 0.77108468302E+01 0.77108467018E+01
 0.76867235527E+01 0.76405147891E+01 0.75759235959E+01 0.74976691118E+01 0.74106861021E+01
 0.73193448342E+01 0.72269036904E+01 0.71353906845E+01 0.70459762231E+01 0.69596692345E+01
 0.68779680401E+01 0.68030889274E+01 0.67376384435E+01 0.66839480809E+01 0.66434968488E+01
 0.66629847522E+01 0.66427998274E+01 0.66361034435E+01 0.66428022897E+01 0.66629854830E+01
 0.66967524530E+01 0.67438030188E+01 0.68030904046E+01 0.68728283560E+01 0.69509245456E+01
 0.70356194610E+01 0.71259286441E+01 0.72215406746E+01 0.73221114387E+01 0.74262608147E+01
 0.75307795793E+01 0.76304518720E+01 0.77185884868E+01 0.77880800810E+01 0.78326532213E+01
 0.78480171390E+01 0.78326516584E+01 0.77880812510E+01 0.77185928958E+01 0.76304555214E+01
 0.75307814778E+01 0.74262639121E+01 0.73221158164E+01 0.72215429630E+01 0.71259285848E+01
 0.70356201388E+01 0.69509259693E+01 0.68728276360E+01 0.68030882175E+01 0.67438029236E+01
 0.66967539312E+01 0.67232989423E+01 0.66968141601E+01 0.66835799852E+01 0.66835817803E+01
 0.66968167687E+01 0.67232991970E+01 0.67628434218E+01 0.68147958495E+01 0.68779682296E+01
 0.69509255265E+01 0.70325396222E+01 0.71224802761E+01 0.72212396305E+01 0.73294660268E+01
 0.74467597223E+01 0.75704409914E+01 0.76948929396E+01 0.78118395810E+01 0.79115183259E+01
 0.79843884189E+01 0.80228996912E+01 0.80228982672E+01 0.79843874114E+01 0.79115216459E+01
 0.78118450329E+01 0.76948965680E+01 0.75704435391E+01 0.74467635026E+01 0.73294696586E+01
 0.72212409786E+01 0.71224806833E+01 0.70325405710E+01 0.69509251285E+01 0.68779653631E+01
 0.68147934652E+01 0.67628434942E+01 0.67960615472E+01 0.67648298935E+01 0.67460183416E+01
 0.67397433283E+01 0.67460205471E+01 0.67648314744E+01 0.67960621342E+01 0.68393703734E+01
 0.68941390687E+01 0.69596691739E+01 0.70356203238E+01 0.71224806146E+01 0.72216846805E+01
 0.73350465264E+01 0.74634766212E+01 0.76053820463E+01 0.77554387179E+01 0.79043640035E+01
 0.80399280382E+01 0.81489568451E+01 0.82197534368E+01 0.82443002286E+01 0.82197526095E+01
 0.81489582655E+01 0.80399320000E+01 0.79043674267E+01 0.77554406462E+01 0.76053846414E+01
 0.74634803387E+01 0.73350492133E+01 0.72216858056E+01 0.71224816953E+01 0.70356209827E+01
 0.69596674609E+01 0.68941357903E+01 0.68393684192E+01 0.68784833785E+01 0.68447147842E+01
 0.68220797234E+01 0.68107266137E+01 0.68107270600E+01 0.68220804235E+01 0.68447152914E+01
 0.68784846208E+01 0.69232121312E+01 0.69788778777E+01 0.70459767429E+01 0.71259289389E+01
 0.72212401286E+01 0.73350467748E+01 0.74698623307E+01 0.76257425924E+01 0.77985101846E+01
 0.79788426640E+01 0.81527906494E+01 0.83037574488E+01 0.84154270293E+01 0.84748424309E+01
 0.84748425514E+01 0.84154278320E+01 0.83037589588E+01 0.81527916055E+01 0.79788426560E+01
 0.77985108713E+01 0.76257451159E+01 0.74698653573E+01 0.73350487661E+01 0.72212415528E+01
 0.71259304298E+01 0.70459771602E+01 0.69788762785E+01 0.69232098572E+01 0.69672650903E+01
 0.69334472826E+01 0.69093032127E+01 0.68947690755E+01 0.68899109123E+01 0.68947686556E+01
 0.69093031901E+01 0.69334482214E+01 0.69672665057E+01 0.70112110618E+01 0.70664806739E+01
 0.71353902527E+01 0.72215415378E+01 0.73294670685E+01 0.74634770710E+01 0.76257422113E+01
 0.78140965365E+01 0.80203943520E+01 0.82302534487E+01 0.84245938522E+01 0.85827863994E+01
 0.86863904823E+01 0.87224755566E+01 0.86863914595E+01 0.85827869903E+01 0.84245931409E+01
 0.82302522281E+01 0.80203942399E+01 0.78140981605E+01 0.76257446870E+01 0.74634791936E+01
 0.73294685259E+01 0.72215427299E+01 0.71353912687E+01 0.70664809659E+01 0.70112102371E+01
 0.70591836994E+01 0.70277412681E+01 0.70046849235E+01 0.69893731362E+01 0.69816921975E+01
 0.69816917973E+01 0.69893730104E+01 0.70046862533E+01 0.70277430455E+01 0.70591843844E+01