   2   2   0   0
  0.2248233E+02  0.3198486E-09  0.3198486E-09  0.5075185E-09  0.5000000E-15
  1.000000000000000E-004
  CAR 
 unknown system                          
     29.67615105     -3.65616975  301      5.22022453      1.00000000
     -3.656  0.0000E+00  0.0000E+00
     -3.545  0.0000E+00  0.0000E+00
     -3.434  0.0000E+00  0.0000E+00
     -3.323  0.0000E+00  0.0000E+00
     -3.212  0.0000E+00  0.0000E+00
     -3.101  0.0000E+00  0.0000E+00
     -2.990  0.0000E+00  0.0000E+00
     -2.878  0.0000E+00  0.0000E+00
     -2.767  0.0000E+00  0.0000E+00
     -2.656  0.2175E-14  0.2416E-15
     -2.545  0.7488E-10  0.8320E-11
     -2.434  0.2350E-06  0.2612E-07
     -2.323  0.7227E-04  0.8056E-05
     -2.212  0.2621E-02  0.2992E-03
     -2.101  0.1573E-01  0.2047E-02
     -1.990  0.2831E-01  0.5192E-02
     -1.878  0.8849E-01  0.1502E-01
     -1.767  0.1383E+00  0.3038E-01
     -1.656  0.7861E-01  0.3912E-01
     -1.545  0.1039E+00  0.5066E-01
     -1.434  0.1016E+00  0.6195E-01
     -1.323  0.1716E+00  0.8102E-01
     -1.212  0.2351E+00  0.1071E+00
     -1.101  0.2640E+00  0.1365E+00
     -0.990  0.1418E+00  0.1522E+00
     -0.878  0.1640E+00  0.1705E+00
     -0.767  0.2156E+00  0.1944E+00
     -0.656  0.1441E+00  0.2104E+00
     -0.545  0.2689E+00  0.2403E+00
     -0.434  0.3392E+00  0.2780E+00
     -0.323  0.3467E+00  0.3165E+00
     -0.212  0.3750E+00  0.3582E+00
     -0.101  0.3312E+00  0.3950E+00
      0.010  0.3298E+00  0.4316E+00
      0.121  0.2346E+00  0.4577E+00
      0.233  0.2070E+00  0.4807E+00
      0.344  0.4438E+00  0.5300E+00
      0.455  0.4306E+00  0.5778E+00
      0.566  0.4583E+00  0.6287E+00
      0.677  0.5980E+00  0.6952E+00
      0.788  0.5618E+00  0.7576E+00
      0.899  0.7473E+00  0.8406E+00
      1.010  0.5657E+00  0.9035E+00
      1.121  0.4682E+00  0.9555E+00
      1.233  0.4734E+00  0.1008E+01
      1.344  0.5141E+00  0.1065E+01
      1.455  0.7307E+00  0.1146E+01
      1.566  0.1756E+01  0.1342E+01
      1.677  0.1752E+01  0.1536E+01
      1.788  0.1313E+01  0.1682E+01
      1.899  0.1456E+01  0.1844E+01
      2.010  0.1189E+01  0.1976E+01
      2.121  0.9691E+00  0.2084E+01
      2.233  0.1279E+01  0.2226E+01
      2.344  0.1687E+01  0.2413E+01
      2.455  0.1605E+01  0.2591E+01
      2.566  0.1289E+01  0.2735E+01
      2.677  0.1553E+01  0.2907E+01
      2.788  0.1589E+01  0.3084E+01
      2.899  0.1867E+01  0.3291E+01
      3.010  0.1773E+01  0.3488E+01
      3.121  0.1808E+01  0.3689E+01
      3.233  0.2076E+01  0.3920E+01
      3.344  0.1418E+01  0.4077E+01
      3.455  0.1192E+01  0.4210E+01
      3.566  0.1745E+01  0.4404E+01
      3.677  0.2057E+01  0.4632E+01
      3.788  0.2014E+01  0.4856E+01
      3.899  0.1844E+01  0.5061E+01
      4.010  0.2692E+01  0.5360E+01
      4.121  0.2884E+01  0.5680E+01
      4.232  0.2679E+01  0.5978E+01
      4.344  0.3123E+01  0.6325E+01
      4.455  0.3202E+01  0.6681E+01
      4.566  0.3091E+01  0.7024E+01
      4.677  0.2415E+01  0.7293E+01
      4.788  0.1565E+01  0.7467E+01
      4.899  0.1201E+01  0.7600E+01
      5.010  0.1152E+01  0.7728E+01
      5.121  0.1287E+01  0.7871E+01
      5.232  0.1333E+01  0.8019E+01
      5.344  0.1966E+01  0.8237E+01
      5.455  0.2507E+01  0.8516E+01
      5.566  0.3133E+01  0.8864E+01
      5.677  0.3155E+01  0.9215E+01
      5.788  0.3313E+01  0.9583E+01
      5.899  0.3902E+01  0.1002E+02
      6.010  0.3433E+01  0.1040E+02
      6.121  0.3009E+01  0.1073E+02
      6.232  0.2992E+01  0.1106E+02
      6.344  0.3246E+01  0.1143E+02
      6.455  0.3381E+01  0.1180E+02
      6.566  0.2999E+01  0.1213E+02
      6.677  0.2763E+01  0.1244E+02
      6.788  0.2664E+01  0.1274E+02
      6.899  0.3142E+01  0.1309E+02
      7.010  0.2791E+01  0.1340E+02
      7.121  0.2188E+01  0.1364E+02
      7.232  0.1845E+01  0.1384E+02
      7.343  0.1467E+01  0.1401E+02
      7.455  0.1223E+01  0.1414E+02
      7.566  0.1398E+01  0.1430E+02
      7.677  0.1360E+01  0.1445E+02
      7.788  0.1081E+01  0.1457E+02
      7.899  0.1161E+01  0.1470E+02
      8.010  0.1492E+01  0.1486E+02
      8.121  0.1263E+01  0.1500E+02
      8.232  0.1369E+01  0.1516E+02
      8.343  0.1270E+01  0.1530E+02
      8.455  0.1109E+01  0.1542E+02
      8.566  0.1090E+01  0.1554E+02
      8.677  0.1257E+01  0.1568E+02
      8.788  0.1475E+01  0.1585E+02
      8.899  0.1144E+01  0.1597E+02
      9.010  0.1199E+01  0.1611E+02
      9.121  0.1596E+01  0.1628E+02
      9.232  0.1467E+01  0.1645E+02
      9.343  0.9151E+00  0.1655E+02
      9.455  0.8399E+00  0.1664E+02
      9.566  0.1295E+01  0.1679E+02
      9.677  0.1638E+01  0.1697E+02
      9.788  0.2195E+01  0.1721E+02
      9.899  0.2354E+01  0.1747E+02
     10.010  0.2378E+01  0.1774E+02
     10.121  0.2368E+01  0.1800E+02
     10.232  0.2572E+01  0.1829E+02
     10.343  0.2239E+01  0.1853E+02
     10.455  0.2086E+01  0.1877E+02
     10.566  0.2197E+01  0.1901E+02
     10.677  0.2408E+01  0.1928E+02
     10.788  0.3137E+01  0.1963E+02
     10.899  0.3502E+01  0.2002E+02
     11.010  0.3640E+01  0.2042E+02
     11.121  0.3181E+01  0.2077E+02
     11.232  0.2942E+01  0.2110E+02
     11.343  0.2531E+01  0.2138E+02
     11.454  0.2040E+01  0.2161E+02
     11.566  0.2282E+01  0.2186E+02
     11.677  0.2250E+01  0.2211E+02
     11.788  0.1562E+01  0.2229E+02
     11.899  0.1450E+01  0.2245E+02
     12.010  0.1610E+01  0.2263E+02
     12.121  0.1207E+01  0.2276E+02
     12.232  0.1381E+01  0.2291E+02
     12.343  0.1695E+01  0.2310E+02
     12.454  0.1667E+01  0.2329E+02
     12.566  0.1129E+01  0.2341E+02
     12.677  0.5186E+00  0.2347E+02
     12.788  0.2952E+00  0.2350E+02
     12.899  0.4567E+00  0.2355E+02
     13.010  0.7963E+00  0.2364E+02
     13.121  0.8597E+00  0.2374E+02
     13.232  0.8748E+00  0.2383E+02
     13.343  0.1294E+01  0.2398E+02
     13.454  0.1380E+01  0.2413E+02
     13.566  0.8375E+00  0.2422E+02
     13.677  0.4932E+00  0.2428E+02
     13.788  0.9194E+00  0.2438E+02
     13.899  0.1088E+01  0.2450E+02
     14.010  0.1053E+01  0.2462E+02
     14.121  0.1439E+01  0.2478E+02
     14.232  0.1663E+01  0.2496E+02
     14.343  0.1392E+01  0.2512E+02
     14.454  0.1537E+01  0.2529E+02
     14.565  0.1685E+01  0.2548E+02
     14.677  0.1907E+01  0.2569E+02
     14.788  0.1568E+01  0.2586E+02
     14.899  0.9731E+00  0.2597E+02
     15.010  0.9620E+00  0.2608E+02
     15.121  0.1141E+01  0.2620E+02
     15.232  0.1034E+01  0.2632E+02
     15.343  0.6643E+00  0.2639E+02
     15.454  0.6088E+00  0.2646E+02
     15.565  0.5951E+00  0.2653E+02
     15.677  0.7360E+00  0.2661E+02
     15.788  0.1028E+01  0.2672E+02
     15.899  0.1197E+01  0.2686E+02
     16.010  0.9941E+00  0.2697E+02
     16.121  0.7564E+00  0.2705E+02
     16.232  0.8071E+00  0.2714E+02
     16.343  0.1278E+01  0.2728E+02
     16.454  0.1308E+01  0.2743E+02
     16.565  0.1468E+01  0.2759E+02
     16.677  0.1197E+01  0.2772E+02
     16.788  0.1361E+01  0.2787E+02
     16.899  0.1472E+01  0.2804E+02
     17.010  0.1322E+01  0.2819E+02
     17.121  0.1313E+01  0.2833E+02
     17.232  0.1624E+01  0.2851E+02
     17.343  0.2278E+01  0.2876E+02
     17.454  0.1145E+02  0.3004E+02
     17.565  0.2053E+02  0.3232E+02
     17.677  0.7198E+01  0.3312E+02
     17.788  0.2098E+01  0.3335E+02
     17.899  0.1812E+01  0.3355E+02
     18.010  0.1504E+01  0.3372E+02
     18.121  0.1530E+01  0.3389E+02
     18.232  0.2090E+01  0.3412E+02
     18.343  0.1736E+01  0.3431E+02
     18.454  0.2109E+01  0.3455E+02
     18.565  0.2285E+01  0.3480E+02
     18.676  0.1896E+01  0.3501E+02
     18.788  0.2296E+01  0.3527E+02
     18.899  0.2547E+01  0.3555E+02
     19.010  0.1811E+01  0.3575E+02
     19.121  0.1567E+01  0.3593E+02
     19.232  0.1880E+01  0.3614E+02
     19.343  0.2014E+01  0.3636E+02
     19.454  0.1882E+01  0.3657E+02
     19.565  0.1733E+01  0.3676E+02
     19.676  0.1358E+01  0.3691E+02
     19.788  0.1454E+01  0.3707E+02
     19.899  0.2459E+01  0.3735E+02
     20.010  0.2584E+01  0.3763E+02
     20.121  0.2134E+01  0.3787E+02
     20.232  0.1953E+01  0.3809E+02
     20.343  0.1909E+01  0.3830E+02
     20.454  0.1650E+01  0.3848E+02
     20.565  0.2101E+01  0.3872E+02
     20.676  0.2302E+01  0.3897E+02
     20.788  0.2073E+01  0.3920E+02
     20.899  0.1498E+01  0.3937E+02
     21.010  0.1348E+01  0.3952E+02
     21.121  0.1242E+01  0.3966E+02
     21.232  0.1340E+01  0.3981E+02
     21.343  0.1992E+01  0.4003E+02
     21.454  0.2262E+01  0.4028E+02
     21.565  0.1760E+01  0.4047E+02
     21.676  0.1556E+01  0.4065E+02
     21.788  0.1192E+01  0.4078E+02
     21.899  0.9237E+00  0.4088E+02
     22.010  0.1287E+01  0.4102E+02
     22.121  0.1261E+01  0.4116E+02
     22.232  0.9955E+00  0.4128E+02
     22.343  0.1172E+01  0.4141E+02
     22.454  0.1269E+01  0.4155E+02
     22.565  0.1515E+01  0.4172E+02
     22.676  0.1472E+01  0.4188E+02
     22.787  0.1159E+01  0.4201E+02
     22.899  0.1316E+01  0.4215E+02
     23.010  0.1709E+01  0.4234E+02
     23.121  0.1895E+01  0.4255E+02
     23.232  0.1469E+01  0.4272E+02
     23.343  0.1032E+01  0.4283E+02
     23.454  0.8652E+00  0.4293E+02
     23.565  0.1640E+01  0.4311E+02
     23.676  0.1496E+01  0.4328E+02
     23.787  0.1102E+01  0.4340E+02
     23.899  0.1102E+01  0.4352E+02
     24.010  0.9417E+00  0.4363E+02
     24.121  0.7323E+00  0.4371E+02
     24.232  0.9442E+00  0.4381E+02
     24.343  0.1492E+01  0.4398E+02
     24.454  0.1478E+01  0.4414E+02
     24.565  0.1211E+01  0.4428E+02
     24.676  0.1129E+01  0.4440E+02
     24.787  0.1068E+01  0.4452E+02
     24.899  0.9630E+00  0.4463E+02
     25.010  0.1045E+01  0.4474E+02
     25.121  0.9238E+00  0.4485E+02
     25.232  0.1378E+01  0.4500E+02
     25.343  0.1446E+01  0.4516E+02
     25.454  0.1687E+01  0.4535E+02
     25.565  0.2121E+01  0.4558E+02
     25.676  0.1702E+01  0.4577E+02
     25.787  0.1862E+01  0.4598E+02
     25.898  0.2220E+01  0.4623E+02
     26.010  0.2154E+01  0.4647E+02
     26.121  0.1413E+01  0.4662E+02
     26.232  0.7679E+00  0.4671E+02
     26.343  0.3650E+00  0.4675E+02
     26.454  0.4305E+00  0.4680E+02
     26.565  0.7377E+00  0.4688E+02
     26.676  0.1488E+01  0.4704E+02
     26.787  0.1429E+01  0.4720E+02
     26.898  0.1121E+01  0.4733E+02
     27.010  0.1069E+01  0.4745E+02
     27.121  0.5221E+00  0.4750E+02
     27.232  0.5536E+00  0.4757E+02
     27.343  0.8457E+00  0.4766E+02
     27.454  0.7305E+00  0.4774E+02
     27.565  0.6608E+00  0.4781E+02
     27.676  0.5658E+00  0.4788E+02
     27.787  0.3381E+00  0.4791E+02
     27.898  0.1993E+00  0.4794E+02
     28.010  0.1572E+00  0.4795E+02
     28.121  0.1919E+00  0.4798E+02
     28.232  0.1870E+00  0.4800E+02
     28.343  0.3676E-01  0.4800E+02
     28.454  0.1015E-02  0.4800E+02
     28.565  0.3154E-05  0.4800E+02
     28.676  0.9657E-09  0.4800E+02
     28.787  0.2731E-13  0.4800E+02
     28.898  0.0000E+00  0.4800E+02
     29.010  0.0000E+00  0.4800E+02
     29.121  0.0000E+00  0.4800E+02
     29.232  0.0000E+00  0.4800E+02
     29.343  0.0000E+00  0.4800E+02
     29.454  0.0000E+00  0.4800E+02
     29.565  0.0000E+00  0.4800E+02
     29.676  0.0000E+00  0.4800E+02
