    2    2    1    1
  0.2248233E+02  0.3198486E-09  0.3198486E-09  0.5075185E-09  0.5000000E-15
  1.000000000000000E-004
  CAR 
 unknown system                          
      8     96     24
 
  0.0000000E+00  0.0000000E+00  0.0000000E+00  0.7513148E-03
      1         -2.141064   1.000000
      2          1.517723   1.000000
      3          5.799852   0.000000
      4          6.392204   0.000000
      5          6.392209   0.000000
      6          6.633727   0.000000
      7          7.196154   0.000000
      8          7.196160   0.000000
      9          7.849293   0.000000
     10          7.849312   0.000000
     11         10.504797   0.000000
     12         10.504821   0.000000
     13         14.010478   0.000000
     14         16.285280   0.000000
     15         17.488332   0.000000
     16         17.494462   0.000000
     17         18.268515   0.000000
     18         19.707458   0.000000
     19         22.583586   0.000000
     20         22.583613   0.000000
     21         22.954299   0.000000
     22         23.338990   0.000000
     23         23.339031   0.000000
     24         26.188185   0.000000
 
  0.9090909E-01  0.8973715E-17  0.0000000E+00  0.4507889E-02
      1         -1.897599   1.000000
      2          1.760643   1.000000
      3          5.482988   0.000101
      4          5.830695   0.000000
      5          6.625995   0.000000
      6          6.905268   0.000000
      7          7.084457   0.000000
      8          7.418019   0.000000
      9          7.541208   0.000000
     10          7.619657   0.000000
     11         10.687253   0.000000
     12         11.113146   0.000000
     13         14.074024   0.000000
     14         16.917411   0.000000
     15         17.488497   0.000000
     16         17.495132   0.000000
     17         18.644681   0.000000
     18         20.085922   0.000000
     19         21.072884   0.000000
     20         21.577691   0.000000
     21         21.753852   0.000000
     22         23.590272   0.000000
     23         25.667390   0.000000
     24         26.549163   0.000000
 
  0.1818182E+00  0.5750520E-17  0.0000000E+00  0.4507889E-02
      1         -1.206013   1.000000
      2          2.390297   1.000000
      3          4.748929   1.000000
      4          5.084013   0.972968
      5          6.334798   0.000000
      6          7.026082   0.000000
      7          7.126830   0.000000
      8          7.312082   0.000000
      9          7.684027   0.000000
     10          8.062144   0.000000
     11         11.041932   0.000000
     12         12.380201   0.000000
     13         13.981262   0.000000
     14         17.486205   0.000000
     15         17.495047   0.000000
     16         18.298719   0.000000
     17         18.887734   0.000000
     18         19.926872   0.000000
     19         20.152836   0.000000
     20         20.258759   0.000000
     21         21.301555   0.000000
     22         24.365425   0.000000
     23         25.405254   0.000000
     24         25.507676   0.000000
 
  0.2727273E+00  0.3415051E-16  0.0000000E+00  0.4507889E-02
      1         -0.190743   1.000000
      2          2.948132   1.000000
      3          3.965134   1.000000
      4          4.603455   1.000000
      5          5.953829   0.000000
      6          6.571482   0.000000
      7          6.625513   0.000000
      8          8.399325   0.000000
      9          8.528424   0.000000
     10          9.053320   0.000000
     11         11.340920   0.000000
     12         13.544664   0.000000
     13         13.774905   0.000000
     14         17.140203   0.000000
     15         17.488407   0.000000
     16         17.497234   0.000000
     17         17.789546   0.000000
     18         18.343635   0.000000
     19         21.289604   0.000000
     20         21.386015   0.000000
     21         21.536873   0.000000
     22         23.790310   0.000000
     23         24.676507   0.000000
     24         25.227931   0.000000
 
  0.3636364E+00  0.9820163E-17  0.0000000E+00  0.4507889E-02
      1          0.910846   1.000000
      2          2.853989   1.000000
      3          3.357427   1.000000
      4          4.471227   1.000000
      5          6.242414   0.000000
      6          6.244686   0.000000
      7          6.306110   0.000000
      8          9.694919   0.000000
      9          9.763143   0.000000
     10         10.222798   0.000000
     11         11.519281   0.000000
     12         13.142995   0.000000
     13         15.003693   0.000000
     14         15.139654   0.000000
     15         16.475895   0.000000
     16         16.919045   0.000000
     17         17.468453   0.000000
     18         17.493572   0.000000
     19         18.431712   0.000000
     20         21.744462   0.000000
     21         22.599258   0.000000
     22         23.307931   0.000000
     23         25.625376   0.000000
     24         25.718326   0.000000
 
  0.4545455E+00  0.4268184E-16  0.0000000E+00  0.4507889E-02
      1          1.728736   1.000000
      2          2.555744   1.000000
      3          3.032059   1.000000
      4          4.403624   1.000000
      5          6.042649   0.000000
      6          6.071160   0.000000
      7          6.798160   0.000000
      8         10.907500   0.000000
      9         11.270445   0.000000
     10         11.313652   0.000000
     11         11.595326   0.000000
     12         13.142824   0.000000
     13         13.451567   0.000000
     14         14.875196   0.000000
     15         15.798888   0.000000
     16         15.799020   0.000000
     17         16.418073   0.000000
     18         17.493067   0.000000
     19         17.504714   0.000000
     20         20.965297   0.000000
     21         21.538706   0.000000
     22         23.821585   0.000000
     23         27.427743   0.000000
     24         28.138741   0.000000
 
  0.9090909E-01  0.9090909E-01  0.0000000E+00  0.4507889E-02
      1         -1.428632   1.000000
      2          2.208084   1.000000
      3          4.974216   0.999748
      4          5.255251   0.310177
      5          6.514598   0.000000
      6          6.993621   0.000000
      7          7.113126   0.000000
      8          7.392570   0.000000
      9          7.438099   0.000000
     10          7.925148   0.000000
     11         10.882935   0.000000
     12         12.065484   0.000000
     13         14.045149   0.000000
     14         17.486209   0.000000
     15         17.495323   0.000000
     16         17.981657   0.000000
     17         19.274599   0.000000
     18         19.877439   0.000000
     19         20.186453   0.000000
     20         20.592456   0.000000
     21         20.940250   0.000000
     22         24.168245   0.000000
     23         25.930571   0.000000
     24         26.577889   0.000000
 
  0.1818182E+00  0.9090909E-01  0.0000000E+00  0.9015778E-02
      1         -0.563719   1.000000
      2          2.900550   1.000000
      3          4.263572   1.000000
      4          4.609036   1.000000
      5          6.029151   0.000000
      6          6.411307   0.000000
      7          7.076306   0.000000
      8          7.932847   0.000000
      9          8.057480   0.000000
     10          8.856892   0.000000
     11         11.119523   0.000000
     12         13.411776   0.000000
     13         13.741070   0.000000
     14         17.482230   0.000000
     15         17.493786   0.000000
     16         17.957733   0.000000
     17         18.528162   0.000000
     18         18.586267   0.000000
     19         20.396316   0.000000
     20         20.581882   0.000000
     21         22.292024   0.000000
     22         23.916761   0.000000
     23         24.770547   0.000000
     24         25.398332   0.000000
 
  0.2727273E+00  0.9090909E-01  0.0000000E+00  0.9015778E-02
      1          0.531811   1.000000
      2          3.159632   1.000000
      3          3.611553   1.000000
      4          4.367268   1.000000
      5          6.002435   0.000000
      6          6.026341   0.000000
      7          6.622860   0.000000
      8          8.774679   0.000000
      9          9.292761   0.000000
     10         10.052652   0.000000
     11         11.305372   0.000000
     12         13.297864   0.000000
     13         14.769023   0.000000
     14         15.933885   0.000000
     15         16.678175   0.000000
     16         17.489928   0.000000
     17         17.494092   0.000000
     18         17.618924   0.000000
     19         20.240409   0.000000
     20         21.302786   0.000000
     21         22.676667   0.000000
     22         23.501118   0.000000
     23         24.577468   0.000000
     24         25.399121   0.000000
 
  0.3636364E+00  0.9090909E-01  0.0000000E+00  0.9015778E-02
      1          1.557062   1.000000
      2          2.878580   1.000000
      3          3.170396   1.000000
      4          4.319329   1.000000
      5          5.870219   0.000000
      6          6.221164   0.000000
      7          6.597911   0.000000
      8          9.894909   0.000000
      9         10.468006   0.000000
     10         11.344830   0.000000
     11         11.403679   0.000000
     12         13.254178   0.000000
     13         14.024122   0.000000
     14         14.733977   0.000000
     15         15.852373   0.000000
     16         16.990434   0.000000
     17         17.426887   0.000000
     18         17.493058   0.000000
     19         17.708711   0.000000
     20         21.379652   0.000000
     21         21.426182   0.000000
     22         24.313002   0.000000
     23         25.977549   0.000000
     24         26.575899   0.000000
 
  0.4545455E+00  0.9090909E-01  0.0000000E+00  0.4507889E-02
      1          2.048391   1.000000
      2          2.673486   1.000000
      3          3.015759   1.000000
      4          4.299239   1.000000
      5          5.895374   0.000000
      6          6.002037   0.000000
      7          6.901434   0.000000
      8         10.864864   0.000000
      9         11.010089   0.000000
     10         11.432201   0.000000
     11         12.270806   0.000000
     12         12.529628   0.000000
     13         13.542484   0.000000
     14         13.893835   0.000000
     15         16.240872   0.000000
     16         16.335331   0.000000
     17         16.719497   0.000000
     18         17.492779   0.000000
     19         17.504980   0.000000
     20         20.620841   0.000000
     21         21.272038   0.000000
     22         24.327586   0.000000
     23         27.316792   0.000000
     24         27.749989   0.000000
 
  0.1818182E+00  0.1818182E+00  0.0000000E+00  0.4507889E-02
      1          0.410449   1.000000
      2          3.529571   1.000000
      3          3.748761   1.000000
      4          4.068240   1.000000
      5          5.875897   0.000000
      6          5.876286   0.000000
      7          6.796947   0.000000
      8          8.386857   0.000000
      9          9.152671   0.000000
     10         10.044874   0.000000
     11         11.128607   0.000000
     12         13.393879   0.000000
     13         14.784491   0.000000
     14         16.334764   0.000000
     15         16.464618   0.000000
     16         17.492607   0.000000
     17         17.494380   0.000000
     18         18.373493   0.000000
     19         20.484665   0.000000
     20         20.976237   0.000000
     21         22.942762   0.000000
     22         23.169226   0.000000
     23         24.228782   0.000000
     24         26.155147   0.000000
 
  0.2727273E+00  0.1818182E+00  0.0000000E+00  0.9015778E-02
      1          1.522644   1.000000
      2          3.331886   1.000000
      3          3.472110   1.000000
      4          4.026958   1.000000
      5          5.611407   0.000000
      6          6.275276   0.000000
      7          6.355813   0.000000
      8          9.102277   0.000000
      9         10.139008   0.000000
     10         11.129918   0.000000
     11         11.316825   0.000000
     12         13.215643   0.000000
     13         14.483947   0.000000
     14         14.565859   0.000000
     15         16.138621   0.000000
     16         17.487697   0.000000
     17         17.493129   0.000000
     18         18.048452   0.000000
     19         19.137065   0.000000
     20         20.720008   0.000000
     21         21.672678   0.000000
     22         24.426475   0.000000
     23         25.230333   0.000000
     24         26.561618   0.000000
 
  0.3636364E+00  0.1818182E+00  0.0000000E+00  0.9015778E-02
      1          2.380877   1.000000
      2          3.099420   1.000000
      3          3.199332   1.000000
      4          4.045543   1.000000
      5          5.614049   0.000000
      6          5.956154   0.000000
      7          6.908337   0.000000
      8         10.007552   0.000000
      9         10.667345   0.000000
     10         11.123361   0.000000
     11         12.025846   0.000000
     12         12.199038   0.000000
     13         13.060908   0.000000
     14         14.819276   0.000000
     15         17.118662   0.000000
     16         17.417552   0.000000
     17         17.492534   0.000000
     18         17.636807   0.000000
     19         17.765126   0.000000
     20         20.327237   0.000000
     21         20.681636   0.000000
     22         25.603552   0.000000
     23         25.691726   0.000000
     24         26.681753   0.000000
 
  0.2727273E+00  0.2727273E+00  0.0000000E+00  0.4507889E-02
      1          2.555334   1.000000
      2          3.159189   1.000000
      3          3.660437   1.000000
      4          3.770966   1.000000
      5          5.456907   0.000408
      6          5.953093   0.000000
      7          6.820630   0.000000
      8          9.649087   0.000000
      9         10.349398   0.000000
     10         10.980931   0.000000
     11         11.958518   0.000000
     12         12.046167   0.000000
     13         12.944311   0.000000
     14         15.281672   0.000000
     15         17.485099   0.000000
     16         17.492529   0.000000
     17         17.530055   0.000000
     18         18.381045   0.000000
     19         18.602256   0.000000
     20         20.040268   0.000000
     21         20.140849   0.000000
     22         24.682424   0.000000
     23         25.921826   0.000000
     24         27.878431   0.000000
 
  0.3636364E+00  0.2727273E+00  0.0000000E+00  0.4507889E-02
      1          3.097031   1.000000
      2          3.100672   1.000000
      3          3.586773   1.000000
      4          3.749345   1.000000
      5          5.517218   0.000013
      6          5.681730   0.000000
      7          7.169561   0.000000
      8         10.173466   0.000000
      9         10.475040   0.000000
     10         10.923926   0.000000
     11         11.058776   0.000000
     12         11.243613   0.000000
     13         13.034750   0.000000
     14         16.617999   0.000000
     15         17.464782   0.000000
     16         17.492370   0.000000
     17         17.860465   0.000000
     18         18.413315   0.000000
     19         18.680767   0.000000
     20         18.949105   0.000000
     21         19.776758   0.000000
     22         25.500191   0.000000
     23         25.541465   0.000000
     24         26.610016   0.000000
 
  0.0000000E+00  0.0000000E+00  0.9090909E-01  0.1502630E-02
      1         -2.066862   1.000000
      2          1.476705   1.000000
      3          5.689423   0.000000
      4          6.346547   0.000000
      5          6.346552   0.000000
      6          6.566922   0.000000
      7          7.132707   0.000000
      8          7.132714   0.000000
      9          7.975770   0.000000
     10          7.975789   0.000000
     11         10.538520   0.000000
     12         10.538542   0.000000
     13         14.277527   0.000000
     14         16.094559   0.000000
     15         17.488245   0.000000
     16         17.494776   0.000000
     17         18.679476   0.000000
     18         19.319739   0.000000
     19         21.828408   0.000000
     20         21.828435   0.000000
     21         23.463437   0.000000
     22         24.283294   0.000000
     23         24.283334   0.000000
     24         25.632502   0.000000
 
  0.9090909E-01  0.8973715E-17  0.9090909E-01  0.9015778E-02
      1         -1.824996   1.000000
      2          1.720473   1.000000
      3          5.358695   0.025099
      4          5.831132   0.000000
      5          6.562148   0.000000
      6          6.823792   0.000000
      7          6.946215   0.000000
      8          7.329445   0.000000
      9          7.777880   0.000000
     10          7.792630   0.000000
     11         10.706371   0.000000
     12         11.064168   0.000000
     13         14.347452   0.000000
     14         16.722179   0.000000
     15         17.488270   0.000000
     16         17.495514   0.000000
     17         19.034989   0.000000
     18         19.509694   0.000000
     19         21.009845   0.000000
     20         21.385672   0.000000
     21         22.185867   0.000000
     22         24.033319   0.000000
     23         25.447126   0.000000
     24         26.037476   0.000000
 
  0.1818182E+00  0.5750520E-17  0.9090909E-01  0.9015778E-02
      1         -1.139290   1.000000
      2          2.355384   1.000000
      3          4.629968   1.000000
      4          5.103921   0.949992
      5          6.365730   0.000000
      6          6.847223   0.000000
      7          6.975688   0.000000
      8          7.498106   0.000000
      9          7.878290   0.000000
     10          8.048153   0.000000
     11         11.028567   0.000000
     12         12.156682   0.000000
     13         14.288538   0.000000
     14         17.485986   0.000000
     15         17.495336   0.000000
     16         18.174366   0.000000
     17         18.681391   0.000000
     18         20.121382   0.000000
     19         20.176642   0.000000
     20         20.410925   0.000000
     21         21.574715   0.000000
     22         24.396240   0.000000
     23         24.441097   0.000000
     24         25.885472   0.000000
 
  0.2727273E+00  0.3415051E-16  0.9090909E-01  0.9015778E-02
      1         -0.138126   1.000000
      2          2.930925   1.000000
      3          3.891210   1.000000
      4          4.629555   1.000000
      5          5.911949   0.000000
      6          6.563407   0.000000
      7          6.654369   0.000000
      8          8.422194   0.000000
      9          8.584569   0.000000
     10          9.007580   0.000000
     11         11.293907   0.000000
     12         13.059784   0.000000
     13         14.147730   0.000000
     14         17.221738   0.000000
     15         17.488660   0.000000
     16         17.493464   0.000000
     17         18.045979   0.000000
     18         18.460922   0.000000
     19         20.767521   0.000000
     20         21.404647   0.000000
     21         22.140239   0.000000
     22         23.581712   0.000000
     23         24.417614   0.000000
     24         24.905070   0.000000
 
  0.3636364E+00  0.9820163E-17  0.9090909E-01  0.9015778E-02
      1          0.930673   1.000000
      2          2.839232   1.000000
      3          3.377316   1.000000
      4          4.463118   1.000000
      5          6.085554   0.000000
      6          6.299127   0.000000
      7          6.432381   0.000000
      8          9.691528   0.000000
      9          9.757571   0.000000
     10         10.127846   0.000000
     11         11.455781   0.000000
     12         13.077999   0.000000
     13         14.321094   0.000000
     14         15.879971   0.000000
     15         16.685777   0.000000
     16         17.134829   0.000000
     17         17.467731   0.000000
     18         17.495079   0.000000
     19         18.407666   0.000000
     20         21.753497   0.000000
     21         22.530473   0.000000
     22         23.039881   0.000000
     23         25.534981   0.000000
     24         25.986553   0.000000
 
  0.4545455E+00  0.4268184E-16  0.9090909E-01  0.9015778E-02
      1          1.678792   1.000000
      2          2.547847   1.000000
      3          3.170933   1.000000
      4          4.295107   1.000000
      5          6.104784   0.000000
      6          6.172054   0.000000
      7          6.730748   0.000000
      8         10.902181   0.000000
      9         11.071379   0.000000
     10         11.228250   0.000000
     11         11.553653   0.000000
     12         12.968834   0.000000
     13         13.450749   0.000000
     14         15.204028   0.000000
     15         15.422177   0.000000
     16         16.303332   0.000000
     17         16.649845   0.000000
     18         17.493326   0.000000
     19         17.505987   0.000000
     20         20.918510   0.000000
     21         21.537827   0.000000
     22         23.703761   0.000000
     23         27.506089   0.000000
     24         28.161046   0.000000
 
  0.9090909E-01  0.9090909E-01  0.9090909E-01  0.9015778E-02
      1         -1.359697   1.000000
      2          2.170762   1.000000
      3          4.846642   1.000000
      4          5.272614   0.229376
      5          6.579225   0.000000
      6          6.764617   0.000000
      7          6.960367   0.000000
      8          7.505310   0.000000
      9          7.646021   0.000000
     10          7.986825   0.000000
     11         10.884357   0.000000
     12         11.897619   0.000000
     13         14.337874   0.000000
     14         17.485554   0.000000
     15         17.495685   0.000000
     16         17.792781   0.000000
     17         19.285910   0.000000
     18         19.513671   0.000000
     19         20.491198   0.000000
     20         20.657334   0.000000
     21         21.342379   0.000000
     22         24.175412   0.000000
     23         25.062050   0.000000
     24         26.898094   0.000000
 
  0.1818182E+00  0.9090909E-01  0.9090909E-01  0.1803156E-01
      1         -0.504095   1.000000
      2          2.875703   1.000000
      3          4.156713   1.000000
      4          4.634607   1.000000
      5          6.071843   0.000000
      6          6.381700   0.000000
      7          6.996870   0.000000
      8          7.945523   0.000000
      9          8.164196   0.000000
     10          8.850903   0.000000
     11         11.090934   0.000000
     12         12.937446   0.000000
     13         14.194862   0.000000
     14         17.482497   0.000000
     15         17.494304   0.000000
     16         17.942867   0.000000
     17         18.460512   0.000000
     18         18.886120   0.000000
     19         20.010503   0.000000
     20         21.196960   0.000000
     21         22.389878   0.000000
     22         23.558626   0.000000
     23         24.305658   0.000000
     24         25.535699   0.000000
 
  0.2727273E+00  0.9090909E-01  0.9090909E-01  0.1803156E-01
      1          0.570738   1.000000
      2          3.152481   1.000000
      3          3.567565   1.000000
      4          4.400454   1.000000
      5          5.833337   0.000000
      6          6.205339   0.000000
      7          6.587354   0.000000
      8          8.752520   0.000000
      9          9.352112   0.000000
     10          9.977811   0.000000
     11         11.266996   0.000000
     12         13.207221   0.000000
     13         14.465420   0.000000
     14         16.354793   0.000000
     15         16.822681   0.000000
     16         17.491012   0.000000
     17         17.492480   0.000000
     18         17.810506   0.000000
     19         20.113689   0.000000
     20         21.498548   0.000000
     21         22.548948   0.000000
     22         23.249394   0.000000
     23         24.466250   0.000000
     24         25.479138   0.000000
 
  0.3636364E+00  0.9090909E-01  0.9090909E-01  0.1803156E-01
      1          1.547007   1.000000
      2          2.860941   1.000000
      3          3.247570   1.000000
      4          4.288170   1.000000
      5          5.885794   0.000000
      6          6.216071   0.000000
      7          6.604262   0.000000
      8          9.843289   0.000000
      9         10.527612   0.000000
     10         10.942068   0.000000
     11         11.598137   0.000000
     12         13.283040   0.000000
     13         13.716601   0.000000
     14         14.949276   0.000000
     15         16.031714   0.000000
     16         17.174539   0.000000
     17         17.450926   0.000000
     18         17.493905   0.000000
     19         17.799426   0.000000
     20         21.373329   0.000000
     21         21.392784   0.000000
     22         24.019799   0.000000
     23         26.093047   0.000000
     24         26.679509   0.000000
 
  0.4545455E+00  0.9090909E-01  0.9090909E-01  0.9015778E-02
      1          1.967941   1.000000
      2          2.680916   1.000000
      3          3.182621   1.000000
      4          4.191868   1.000000
      5          5.907335   0.000000
      6          6.083395   0.000000
      7          6.874363   0.000000
      8         10.839923   0.000000
      9         10.960307   0.000000
     10         11.160778   0.000000
     11         12.191950   0.000000
     12         12.508096   0.000000
     13         13.853362   0.000000
     14         13.886388   0.000000
     15         15.798210   0.000000
     16         16.880900   0.000000
     17         16.936436   0.000000
     18         17.493046   0.000000
     19         17.508513   0.000000
     20         20.560853   0.000000
     21         21.308470   0.000000
     22         24.215180   0.000000
     23         27.366156   0.000000
     24         27.572906   0.000000
 
  0.1818182E+00  0.1818182E+00  0.9090909E-01  0.9015778E-02
      1          0.456317   1.000000
      2          3.530436   1.000000
      3          3.668265   1.000000
      4          4.095966   1.000000
      5          5.851116   0.000000
      6          5.948571   0.000000
      7          6.710568   0.000000
      8          8.374149   0.000000
      9          9.239737   0.000000
     10          9.970268   0.000000
     11         11.112132   0.000000
     12         13.308646   0.000000
     13         14.563204   0.000000
     14         16.564376   0.000000
     15         16.708842   0.000000
     16         17.493242   0.000000
     17         17.494012   0.000000
     18         18.506635   0.000000
     19         20.414398   0.000000
     20         21.137112   0.000000
     21         22.960151   0.000000
     22         22.974541   0.000000
     23         23.962448   0.000000
     24         26.044589   0.000000
 
  0.2727273E+00  0.1818182E+00  0.9090909E-01  0.1803156E-01
      1          1.542469   1.000000
      2          3.280930   1.000000
      3          3.507063   1.000000
      4          4.078743   1.000000
      5          5.601148   0.000000
      6          6.195637   0.000000
      7          6.363480   0.000000
      8          9.078125   0.000000
      9         10.268139   0.000000
     10         10.726800   0.000000
     11         11.551384   0.000000
     12         13.272845   0.000000
     13         14.145998   0.000000
     14         14.668888   0.000000
     15         16.485711   0.000000
     16         17.487894   0.000000
     17         17.492969   0.000000
     18         18.166520   0.000000
     19         19.108516   0.000000
     20         20.817577   0.000000
     21         21.700253   0.000000
     22         23.833712   0.000000
     23         25.462740   0.000000
     24         26.674948   0.000000
 
  0.3636364E+00  0.1818182E+00  0.9090909E-01  0.1803156E-01
      1          2.326541   1.000000
      2          3.159276   1.000000
      3          3.261848   1.000000
      4          4.017758   1.000000
      5          5.607103   0.000000
      6          5.909447   0.000000
      7          6.914028   0.000000
      8          9.983920   0.000000
      9         10.758011   0.000000
     10         10.809643   0.000000
     11         12.010005   0.000000
     12         12.222249   0.000000
     13         13.384468   0.000000
     14         14.711171   0.000000
     15         16.800276   0.000000
     16         17.484142   0.000000
     17         17.492429   0.000000
     18         17.868129   0.000000
     19         17.997703   0.000000
     20         20.260263   0.000000
     21         20.786787   0.000000
     22         25.171637   0.000000
     23         25.851144   0.000000
     24         26.721007   0.000000
 
  0.2727273E+00  0.2727273E+00  0.9090909E-01  0.9015778E-02
      1          2.559877   1.000000
      2          3.138857   1.000000
      3          3.677451   1.000000
      4          3.838505   1.000000
      5          5.463327   0.000293
      6          5.822825   0.000000
      7          6.822876   0.000000
      8          9.638529   0.000000
      9         10.545800   0.000000
     10         10.641990   0.000000
     11         11.993576   0.000000
     12         12.007086   0.000000
     13         13.278527   0.000000
     14         15.101701   0.000000
     15         17.484105   0.000000
     16         17.492494   0.000000
     17         17.601361   0.000000
     18         18.261972   0.000000
     19         18.675318   0.000000
     20         20.181712   0.000000
     21         20.287893   0.000000
     22         24.391149   0.000000
     23         25.968916   0.000000
     24         27.794921   0.000000
 
  0.3636364E+00  0.2727273E+00  0.9090909E-01  0.9015778E-02
      1          2.991552   1.000000
      2          3.254957   1.000000
      3          3.614022   1.000000
      4          3.725544   1.000000
      5          5.483747   0.000097
      6          5.611190   0.000000
      7          7.164604   0.000000