 vasp.6.3.0 20Jan22 (build Feb 10 2022 15:15:41) complex                        
  
 executed on             LinuxIFC date 2023.08.22  12:52:34
 running on   24 total cores
 distrk:  each k-point on   24 cores,    1 groups
 distr:  one band on NCORE=   1 cores,   24 groups


--------------------------------------------------------------------------------------------------------


 INCAR:
   ENCUT = 500
   ISMEAR = 0
   SIGMA = 0.1

 POTCAR:    PAW_PBE Hf 20Jan2003                  
 -----------------------------------------------------------------------------
|                                                                             |
|           W    W    AA    RRRRR   N    N  II  N    N   GGGG   !!!           |
|           W    W   A  A   R    R  NN   N  II  NN   N  G    G  !!!           |
|           W    W  A    A  R    R  N N  N  II  N N  N  G       !!!           |
|           W WW W  AAAAAA  RRRRR   N  N N  II  N  N N  G  GGG   !            |
|           WW  WW  A    A  R   R   N   NN  II  N   NN  G    G                |
|           W    W  A    A  R    R  N    N  II  N    N   GGGG   !!!           |
|                                                                             |
|     For optimal performance we recommend to set                             |
|       NCORE = 2 up to number-of-cores-per-socket                            |
|     NCORE specifies how many cores store one orbital (NPAR=cpu/NCORE).      |
|     This setting can greatly improve the performance of VASP for DFT.       |
|     The default, NCORE=1 might be grossly inefficient on modern             |
|     multi-core architectures or massively parallel machines. Do your        |
|     own testing! More info at https://www.vasp.at/wiki/index.php/NCORE      |
|     Unfortunately you need to use the default for GW and RPA                |
|     calculations (for HF NCORE is supported but not extensively tested      |
|     yet).                                                                   |
|                                                                             |
 -----------------------------------------------------------------------------

 POTCAR:    PAW_PBE Hf 20Jan2003                  
   VRHFIN =Hf: 6s5d                                                                                 
   LEXCH  = PE                                                                                      
   EATOM  =    75.9011 eV,    5.5786 Ry                                                             
                                                                                                    
   TITEL  = PAW_PBE Hf 20Jan2003                                                                    
   LULTRA =        F    use ultrasoft PP ?                                                          
   IUNSCR =        1    unscreen: 0-lin 1-nonlin 2-no                                               
   RPACOR =    2.500    partial core radius                                                         
   POMASS =  178.490; ZVAL   =    4.000    mass and valenz                                          
   RCORE  =    3.000    outmost cutoff radius                                                       
   RWIGS  =    3.050; RWIGS  =    1.614    wigner-seitz radius (au A)                               
   ENMAX  =  220.334; ENMIN  =  165.250 eV                                                          
   RCLOC  =    2.212    cutoff for local pot                                                        
   LCOR   =        T    correct aug charges                                                         
   LPAW   =        T    paw PP                                                                      
   EAUG   =  335.116                                                                                
   DEXC   =    0.000                                                                                
   RMAX   =    3.077    core radius for proj-oper                                                   
   RAUG   =    1.300    factor for augmentation sphere                                              
   RDEP   =    3.047    radius for radial grids                                                     
   RDEPT  =    2.344    core radius for aug-charge                                                  
                                                                                                    
   Atomic configuration                                                                             
   16 entries                                                                                       
     n  l   j            E        occ.                                                              
     1  0  0.50    -65259.4397   2.0000                                                             
     2  0  0.50    -11157.9882   2.0000                                                             
     2  1  1.50     -9795.2113   6.0000                                                             
     3  0  0.50     -2541.4058   2.0000                                                             
     3  1  1.50     -2134.4770   6.0000                                                             
     3  2  2.50     -1653.5418  10.0000                                                             
     4  0  0.50      -510.9575   2.0000                                                             
     4  1  1.50      -377.5023   6.0000                                                             
     4  2  2.50      -205.2085  10.0000                                                             
     4  3  3.50       -15.4905  14.0000                                                             
     5  0  0.50       -65.6020   2.0000                                                             
     5  1  1.50       -34.2798   6.0000                                                             
     5  2  2.50        -1.9877   3.0000                                                             
     6  0  0.50        -4.7357   1.0000                                                             
     6  1  1.50        -1.3606   0.0000                                                             
     5  3  2.50        -1.3606   0.0000                                                             
   Description                                                                                      
     l       E           TYP  RCUT    TYP  RCUT                                                     
     2     -1.9876627     23  2.500                                                                 
     2      0.0744703     23  2.500                                                                 
     0     -4.7356889     23  2.600                                                                 
     0      3.2364747     23  2.600                                                                 
     1     -1.3605826     23  3.000                                                                 
     1     27.2116520     23  3.000                                                                 
  local pseudopotential read in
  partial core-charges read in
  partial kinetic energy density read in
  atomic valenz-charges read in
  non local Contribution for L=           2  read in
    real space projection operators read in
  non local Contribution for L=           2  read in
    real space projection operators read in
  non local Contribution for L=           0  read in
    real space projection operators read in
  non local Contribution for L=           0  read in
    real space projection operators read in
  non local Contribution for L=           1  read in
    real space projection operators read in
  non local Contribution for L=           1  read in
    real space projection operators read in
    PAW grid and wavefunctions read in
 
   number of l-projection  operators is LMAX  =           6
   number of lm-projection operators is LMMAX =          18
 
  PAW_PBE Hf 20Jan2003                  :
 energy of atom  1       EATOM=  -75.9011
 kinetic energy error for atom=    0.0007 (will be added to EATOM!!)
 
 
 POSCAR: Hf
  positions in direct lattice
  No initial velocities read in
 exchange correlation table for  LEXCH =        8
   RHO(1)=    0.500       N(1)  =     2000
   RHO(2)=  100.500       N(2)  =     4000
 


--------------------------------------------------------------------------------------------------------


 ion  position               nearest neighbor table
   1  0.667  0.333  0.250-   2 3.14   2 3.14   2 3.14   2 3.14   2 3.14   2 3.14
   2  0.333  0.667  0.750-   1 3.14   1 3.14   1 3.14   1 3.14   1 3.14   1 3.14
 
  LATTYP: Found a hexagonal cell.
 ALAT       =     3.1984858877
 C/A-ratio  =     1.5867460974
  
  Lattice vectors:
  
 A1 = (   1.5992430000,  -2.7699700000,   0.0000000000)
 A2 = (   1.5992430000,   2.7699700000,   0.0000000000)
 A3 = (   0.0000000000,   0.0000000000,   5.0751850000)


Analysis of symmetry for initial positions (statically):
=====================================================================
 Subroutine PRICEL returns:
 Original cell was already a primitive cell.
 

 Routine SETGRP: Setting up the symmetry group for a 
 hexagonal supercell.


 Subroutine GETGRP returns: Found 24 space group operations
 (whereof 12 operations were pure point group operations)
 out of a pool of 24 trial point group operations.


The static configuration has the point symmetry D_3d.
 The point group associated with its full space group is D_6h.


Analysis of symmetry for dynamics (positions and initial velocities):
=====================================================================
 Subroutine PRICEL returns:
 Original cell was already a primitive cell.
 

 Routine SETGRP: Setting up the symmetry group for a 
 hexagonal supercell.


 Subroutine GETGRP returns: Found 24 space group operations
 (whereof 12 operations were pure point group operations)
 out of a pool of 24 trial point group operations.


The dynamic configuration has the point symmetry D_3d.
 The point group associated with its full space group is D_6h.


 Subroutine INISYM returns: Found 24 space group operations
 (whereof 12 operations are pure point group operations),
 and found     1 'primitive' translations


----------------------------------------------------------------------------------------

                                     Primitive cell                                     

  volume of cell :      44.9647

  direct lattice vectors                    reciprocal lattice vectors
     1.599243000 -2.769970000  0.000000000     0.312647922 -0.180507370  0.000000000
     1.599243000  2.769970000  0.000000000     0.312647922  0.180507370  0.000000000
     0.000000000  0.000000000  5.075185000     0.000000000  0.000000000  0.197037152

  length of vectors
     3.198485888  3.198485888  5.075185000     0.361014728  0.361014728  0.197037152

  position of ions in fractional coordinates (direct lattice)
     0.666667000  0.333333000  0.250000000
     0.333333000  0.666667000  0.750000000

  ion indices of the primitive-cell ions
   primitive index   ion index
                 1           1
                 2           2

----------------------------------------------------------------------------------------

 
 
 KPOINTS: K-Points                                

Automatic generation of k-mesh.
 Grid dimensions read from file:
 generate k-points for:   11   11   11

 Generating k-lattice:

  Cartesian coordinates                     Fractional coordinates (reciprocal lattice)
     0.028422538 -0.016409761  0.000000000     0.090909091 -0.000000000  0.000000000
     0.028422538  0.016409761  0.000000000    -0.000000000  0.090909091  0.000000000
     0.000000000  0.000000000  0.017912468     0.000000000  0.000000000  0.090909091

  Length of vectors
     0.032819521  0.032819521  0.017912468

  Shift w.r.t. Gamma in fractional coordinates (k-lattice)
     0.000000000  0.000000000  0.000000000

 
 Subroutine IBZKPT returns following result:
 ===========================================
 
 Found     96 irreducible k-points:
 
 Following reciprocal coordinates:
            Coordinates               Weight
  0.000000  0.000000  0.000000      1.000000
  0.090909  0.000000  0.000000      6.000000
  0.181818  0.000000  0.000000      6.000000
  0.272727  0.000000  0.000000      6.000000
  0.363636  0.000000  0.000000      6.000000
  0.454545  0.000000  0.000000      6.000000
  0.090909  0.090909  0.000000      6.000000
  0.181818  0.090909  0.000000     12.000000
  0.272727  0.090909  0.000000     12.000000
  0.363636  0.090909  0.000000     12.000000
  0.454545  0.090909  0.000000      6.000000
  0.181818  0.181818  0.000000      6.000000
  0.272727  0.181818  0.000000     12.000000
  0.363636  0.181818  0.000000     12.000000
  0.272727  0.272727  0.000000      6.000000
  0.363636  0.272727  0.000000      6.000000
  0.000000  0.000000  0.090909      2.000000
  0.090909  0.000000  0.090909     12.000000
  0.181818  0.000000  0.090909     12.000000
  0.272727  0.000000  0.090909     12.000000
  0.363636  0.000000  0.090909     12.000000
  0.454545  0.000000  0.090909     12.000000
  0.090909  0.090909  0.090909     12.000000
  0.181818  0.090909  0.090909     24.000000
  0.272727  0.090909  0.090909     24.000000
  0.363636  0.090909  0.090909     24.000000
  0.454545  0.090909  0.090909     12.000000
  0.181818  0.181818  0.090909     12.000000
  0.272727  0.181818  0.090909     24.000000
  0.363636  0.181818  0.090909     24.000000
  0.272727  0.272727  0.090909     12.000000
  0.363636  0.272727  0.090909     12.000000
  0.000000  0.000000  0.181818      2.000000
  0.090909  0.000000  0.181818     12.000000
  0.181818  0.000000  0.181818     12.000000
  0.272727  0.000000  0.181818     12.000000
  0.363636  0.000000  0.181818     12.000000
  0.454545  0.000000  0.181818     12.000000
  0.090909  0.090909  0.181818     12.000000
  0.181818  0.090909  0.181818     24.000000
  0.272727  0.090909  0.181818     24.000000
  0.363636  0.090909  0.181818     24.000000
  0.454545  0.090909  0.181818     12.000000
  0.181818  0.181818  0.181818     12.000000
  0.272727  0.181818  0.181818     24.000000
  0.363636  0.181818  0.181818     24.000000
  0.272727  0.272727  0.181818     12.000000
  0.363636  0.272727  0.181818     12.000000
  0.000000  0.000000  0.272727      2.000000
  0.090909  0.000000  0.272727     12.000000
  0.181818  0.000000  0.272727     12.000000
  0.272727  0.000000  0.272727     12.000000
  0.363636  0.000000  0.272727     12.000000
  0.454545  0.000000  0.272727     12.000000
  0.090909  0.090909  0.272727     12.000000
  0.181818  0.090909  0.272727     24.000000
  0.272727  0.090909  0.272727     24.000000
  0.363636  0.090909  0.272727     24.000000
  0.454545  0.090909  0.272727     12.000000
  0.181818  0.181818  0.272727     12.000000
  0.272727  0.181818  0.272727     24.000000
  0.363636  0.181818  0.272727     24.000000
  0.272727  0.272727  0.272727     12.000000
  0.363636  0.272727  0.272727     12.000000
  0.000000  0.000000  0.363636      2.000000
  0.090909  0.000000  0.363636     12.000000
  0.181818  0.000000  0.363636     12.000000
  0.272727  0.000000  0.363636     12.000000
  0.363636  0.000000  0.363636     12.000000
  0.454545  0.000000  0.363636     12.000000
  0.090909  0.090909  0.363636     12.000000
  0.181818  0.090909  0.363636     24.000000
  0.272727  0.090909  0.363636     24.000000
  0.363636  0.090909  0.363636     24.000000
  0.454545  0.090909  0.363636     12.000000
  0.181818  0.181818  0.363636     12.000000
  0.272727  0.181818  0.363636     24.000000
  0.363636  0.181818  0.363636     24.000000
  0.272727  0.272727  0.363636     12.000000
  0.363636  0.272727  0.363636     12.000000
  0.000000  0.000000  0.454545      2.000000
  0.090909  0.000000  0.454545     12.000000
  0.181818  0.000000  0.454545     12.000000
  0.272727  0.000000  0.454545     12.000000
  0.363636  0.000000  0.454545     12.000000
  0.454545  0.000000  0.454545     12.000000
  0.090909  0.090909  0.454545     12.000000
  0.181818  0.090909  0.454545     24.000000
  0.272727  0.090909  0.454545     24.000000
  0.363636  0.090909  0.454545     24.000000
  0.454545  0.090909  0.454545     12.000000
  0.181818  0.181818  0.454545     12.000000
  0.272727  0.181818  0.454545     24.000000
  0.363636  0.181818  0.454545     24.000000
  0.272727  0.272727  0.454545     12.000000
  0.363636  0.272727  0.454545     12.000000
 
 Following cartesian coordinates:
            Coordinates               Weight
  0.000000  0.000000  0.000000      1.000000
  0.028423 -0.016410  0.000000      6.000000
  0.056845 -0.032820  0.000000      6.000000
  0.085268 -0.049229  0.000000      6.000000
  0.113690 -0.065639  0.000000      6.000000
  0.142113 -0.082049  0.000000      6.000000
  0.056845  0.000000  0.000000      6.000000
  0.085268 -0.016410  0.000000     12.000000
  0.113690 -0.032820  0.000000     12.000000
  0.142113 -0.049229  0.000000     12.000000
  0.170535 -0.065639  0.000000      6.000000
  0.113690 -0.000000  0.000000      6.000000
  0.142113 -0.016410  0.000000     12.000000
  0.170535 -0.032820  0.000000     12.000000
  0.170535  0.000000  0.000000      6.000000
  0.198958 -0.016410  0.000000      6.000000
  0.000000  0.000000  0.017912      2.000000
  0.028423 -0.016410  0.017912     12.000000
  0.056845 -0.032820  0.017912     12.000000
  0.085268 -0.049229  0.017912     12.000000
  0.113690 -0.065639  0.017912     12.000000
  0.142113 -0.082049  0.017912     12.000000
  0.056845  0.000000  0.017912     12.000000
  0.085268 -0.016410  0.017912     24.000000
  0.113690 -0.032820  0.017912     24.000000
  0.142113 -0.049229  0.017912     24.000000
  0.170535 -0.065639  0.017912     12.000000
  0.113690 -0.000000  0.017912     12.000000
  0.142113 -0.016410  0.017912     24.000000
  0.170535 -0.032820  0.017912     24.000000
  0.170535  0.000000  0.017912     12.000000
  0.198958 -0.016410  0.017912     12.000000
  0.000000  0.000000  0.035825      2.000000
  0.028423 -0.016410  0.035825     12.000000
  0.056845 -0.032820  0.035825     12.000000
  0.085268 -0.049229  0.035825     12.000000
  0.113690 -0.065639  0.035825     12.000000
  0.142113 -0.082049  0.035825     12.000000
  0.056845  0.000000  0.035825     12.000000
  0.085268 -0.016410  0.035825     24.000000
  0.113690 -0.032820  0.035825     24.000000
  0.142113 -0.049229  0.035825     24.000000
  0.170535 -0.065639  0.035825     12.000000
  0.113690 -0.000000  0.035825     12.000000
  0.142113 -0.016410  0.035825     24.000000
  0.170535 -0.032820  0.035825     24.000000
  0.170535  0.000000  0.035825     12.000000
  0.198958 -0.016410  0.035825     12.000000
  0.000000  0.000000  0.053737      2.000000
  0.028423 -0.016410  0.053737     12.000000
  0.056845 -0.032820  0.053737     12.000000
  0.085268 -0.049229  0.053737     12.000000
  0.113690 -0.065639  0.053737     12.000000
  0.142113 -0.082049  0.053737     12.000000
  0.056845  0.000000  0.053737     12.000000
  0.085268 -0.016410  0.053737     24.000000
  0.113690 -0.032820  0.053737     24.000000
  0.142113 -0.049229  0.053737     24.000000
  0.170535 -0.065639  0.053737     12.000000
  0.113690 -0.000000  0.053737     12.000000
  0.142113 -0.016410  0.053737     24.000000
  0.170535 -0.032820  0.053737     24.000000
  0.170535  0.000000  0.053737     12.000000
  0.198958 -0.016410  0.053737     12.000000
  0.000000  0.000000  0.071650      2.000000
  0.028423 -0.016410  0.071650     12.000000
  0.056845 -0.032820  0.071650     12.000000
  0.085268 -0.049229  0.071650     12.000000
  0.113690 -0.065639  0.071650     12.000000
  0.142113 -0.082049  0.071650     12.000000
  0.056845  0.000000  0.071650     12.000000
  0.085268 -0.016410  0.071650     24.000000
  0.113690 -0.032820  0.071650     24.000000
  0.142113 -0.049229  0.071650     24.000000
  0.170535 -0.065639  0.071650     12.000000
  0.113690 -0.000000  0.071650     12.000000
  0.142113 -0.016410  0.071650     24.000000
  0.170535 -0.032820  0.071650     24.000000
  0.170535  0.000000  0.071650     12.000000
  0.198958 -0.016410  0.071650     12.000000
  0.000000  0.000000  0.089562      2.000000
  0.028423 -0.016410  0.089562     12.000000
  0.056845 -0.032820  0.089562     12.000000
  0.085268 -0.049229  0.089562     12.000000
  0.113690 -0.065639  0.089562     12.000000
  0.142113 -0.082049  0.089562     12.000000
  0.056845  0.000000  0.089562     12.000000
  0.085268 -0.016410  0.089562     24.000000
  0.113690 -0.032820  0.089562     24.000000
  0.142113 -0.049229  0.089562     24.000000
  0.170535 -0.065639  0.089562     12.000000
  0.113690 -0.000000  0.089562     12.000000
  0.142113 -0.016410  0.089562     24.000000
  0.170535 -0.032820  0.089562     24.000000
  0.170535  0.000000  0.089562     12.000000
  0.198958 -0.016410  0.089562     12.000000
 


--------------------------------------------------------------------------------------------------------




 Dimension of arrays:
   k-points           NKPTS =     96   k-points in BZ     NKDIM =     96   number of bands    NBANDS=     24
   number of dos      NEDOS =    301   number of ions     NIONS =      2
   non local maximal  LDIM  =      6   non local SUM 2l+1 LMDIM =     18
   total plane-waves  NPLWV =   9072
   max r-space proj   IRMAX =      1   max aug-charges    IRDMAX=  13745
   dimension x,y,z NGX =    18 NGY =   18 NGZ =   28
   dimension x,y,z NGXF=    36 NGYF=   36 NGZF=   56
   support grid    NGXF=    36 NGYF=   36 NGZF=   56
   ions per type =               2
   NGX,Y,Z   is equivalent  to a cutoff of   9.36,  9.36,  9.17 a.u.
   NGXF,Y,Z  is equivalent  to a cutoff of  18.71, 18.71, 18.34 a.u.

 SYSTEM =  unknown system                          
 POSCAR =  Hf                                      

 Startparameter for this run:
   NWRITE =      2    write-flag & timer
   PREC   = normal    normal or accurate (medium, high low for compatibility)
   ISTART =      0    job   : 0-new  1-cont  2-samecut
   ICHARG =      2    charge: 1-file 2-atom 10-const
   ISPIN  =      1    spin polarized calculation?
   LNONCOLLINEAR =      F non collinear calculations
   LSORBIT =      F    spin-orbit coupling
   INIWAV =      1    electr: 0-lowe 1-rand  2-diag
   LASPH  =      F    aspherical Exc in radial PAW
 Electronic Relaxation 1
   ENCUT  =  500.0 eV  36.75 Ry    6.06 a.u.   5.83  5.83  9.25*2*pi/ulx,y,z
   ENINI  =  500.0     initial cutoff
   ENAUG  =  335.1 eV  augmentation charge cutoff
   NELM   =     60;   NELMIN=  2; NELMDL= -5     # of ELM steps 
   EDIFF  = 0.1E-03   stopping-criterion for ELM
   LREAL  =      F    real-space projection
   NLSPLINE    = F    spline interpolate recip. space projectors
   LCOMPAT=      F    compatible to vasp.4.4
   GGA_COMPAT  = T    GGA compatible to vasp.4.4-vasp.4.6
   LMAXPAW     = -100 max onsite density
   LMAXMIX     =    2 max onsite mixed and CHGCAR
   VOSKOWN=      0    Vosko Wilk Nusair interpolation
   ROPT   =    0.00000
 Ionic relaxation
   EDIFFG = 0.1E-02   stopping-criterion for IOM
   NSW    =      0    number of steps for IOM
   NBLOCK =      1;   KBLOCK =      1    inner block; outer block 
   IBRION =     -1    ionic relax: 0-MD 1-quasi-New 2-CG
   NFREE  =      0    steps in history (QN), initial steepest desc. (CG)
   ISIF   =      2    stress and relaxation
   IWAVPR =     10    prediction:  0-non 1-charg 2-wave 3-comb
   ISYM   =      2    0-nonsym 1-usesym 2-fastsym
   LCORR  =      T    Harris-Foulkes like correction to forces

   POTIM  = 0.5000    time-step for ionic-motion
   TEIN   =    0.0    initial temperature
   TEBEG  =    0.0;   TEEND  =   0.0 temperature during run
   SMASS  =  -3.00    Nose mass-parameter (am)
   estimated Nose-frequenzy (Omega)   =  0.10E-29 period in steps = 0.13E+47 mass=  -0.234E-27a.u.
   SCALEE = 1.0000    scale energy and forces
   NPACO  =    256;   APACO  = 10.0  distance and # of slots for P.C.
   PSTRESS=    0.0 pullay stress

  Mass of Ions in am
   POMASS = 178.49
  Ionic Valenz
   ZVAL   =   4.00
  Atomic Wigner-Seitz radii
   RWIGS  =  -1.00
  virtual crystal weights 
   VCA    =   1.00
   NELECT =       8.0000    total number of electrons
   NUPDOWN=      -1.0000    fix difference up-down

 DOS related values:
   EMIN   =  10.00;   EMAX   =-10.00  energy-range for DOS
   EFERMI =   0.00
   ISMEAR =     0;   SIGMA  =   0.10  broadening in eV -4-tet -1-fermi 0-gaus

 Electronic relaxation 2 (details)
   IALGO  =     38    algorithm
   LDIAG  =      T    sub-space diagonalisation (order eigenvalues)
   LSUBROT=      F    optimize rotation matrix (better conditioning)
   TURBO    =      0    0=normal 1=particle mesh
   IRESTART =      0    0=no restart 2=restart with 2 vectors
   NREBOOT  =      0    no. of reboots
   NMIN     =      0    reboot dimension
   EREF     =   0.00    reference energy to select bands
   IMIX   =      4    mixing-type and parameters
     AMIX     =   0.40;   BMIX     =  1.00
     AMIX_MAG =   1.60;   BMIX_MAG =  1.00
     AMIN     =   0.10
     WC   =   100.;   INIMIX=   1;  MIXPRE=   1;  MAXMIX= -45

 Intra band minimization:
   WEIMIN = 0.0000     energy-eigenvalue tresh-hold
   EBREAK =  0.10E-05  absolut break condition
   DEPER  =   0.30     relativ break condition  

   TIME   =   0.40     timestep for ELM

  volume/ion in A,a.u.               =      22.48       151.72
  Fermi-wavevector in a.u.,A,eV,Ry     =   0.920763  1.739989 11.535072  0.847804
  Thomas-Fermi vector in A             =   2.046104
 
 Write flags
   LWAVE        =      T    write WAVECAR
   LDOWNSAMPLE  =      F    k-point downsampling of WAVECAR
   LCHARG       =      T    write CHGCAR
   LVTOT        =      F    write LOCPOT, total local potential
   LVHAR        =      F    write LOCPOT, Hartree potential only
   LELF         =      F    write electronic localiz. function (ELF)
   LORBIT       =      0    0 simple, 1 ext, 2 COOP (PROOUT), +10 PAW based schemes


 Dipole corrections
   LMONO  =      F    monopole corrections only (constant potential shift)
   LDIPOL =      F    correct potential (dipole corrections)
   IDIPOL =      0    1-x, 2-y, 3-z, 4-all directions 
   EPSILON=  1.0000000 bulk dielectric constant

 Exchange correlation treatment:
   GGA     =    --    GGA type
   LEXCH   =     8    internal setting for exchange type
   LIBXC   =     F    Libxc                    
   VOSKOWN =     0    Vosko Wilk Nusair interpolation
   LHFCALC =     F    Hartree Fock is set to
   LHFONE  =     F    Hartree Fock one center treatment
   AEXX    =    0.0000 exact exchange contribution

 Linear response parameters
   LEPSILON=     F    determine dielectric tensor
   LRPA    =     F    only Hartree local field effects (RPA)
   LNABLA  =     F    use nabla operator in PAW spheres
   LVEL    =     F    velocity operator in full k-point grid
   CSHIFT  =0.1000    complex shift for real part using Kramers Kronig
   OMEGAMAX=  -1.0    maximum frequency
   DEG_THRESHOLD= 0.2000000E-02 threshold for treating states as degnerate
   RTIME   =   -0.100 relaxation time in fs
  (WPLASMAI=    0.000 imaginary part of plasma frequency in eV, 0.658/RTIME)
   DFIELD  = 0.0000000 0.0000000 0.0000000 field for delta impulse in time
 
  Optional k-point grid parameters
   LKPOINTS_OPT  =     F    use optional k-point grid
   KPOINTS_OPT_MODE=     1    mode for optional k-point grid
 
 Orbital magnetization related:
   ORBITALMAG=     F  switch on orbital magnetization
   LCHIMAG   =     F  perturbation theory with respect to B field
   DQ        =  0.001000  dq finite difference perturbation B field
   LLRAUG    =     F  two centre corrections for induced B field



--------------------------------------------------------------------------------------------------------


 Static calculation
 charge density and potential will be updated during run
 non-spin polarized calculation
 Variant of blocked Davidson
 Davidson routine will perform the subspace rotation
 perform sub-space diagonalisation
    after iterative eigenvector-optimisation
 modified Broyden-mixing scheme, WC =      100.0
 initial mixing is a Kerker type mixing with AMIX =  0.4000 and BMIX =      1.0000
 Hartree-type preconditioning will be used
 using additional bands           20
 reciprocal scheme for non local part
 use partial core corrections
 calculate Harris-corrections to forces 
   (improved forces if not selfconsistent)
 use gradient corrections 
 use of overlap-Matrix (Vanderbilt PP)
 Gauss-broadening in eV      SIGMA  =   0.10


--------------------------------------------------------------------------------------------------------


  energy-cutoff  :      500.00
  volume of cell :       44.96
      direct lattice vectors                 reciprocal lattice vectors
     1.599243000 -2.769970000  0.000000000     0.312647922 -0.180507370  0.000000000
     1.599243000  2.769970000  0.000000000     0.312647922  0.180507370  0.000000000
     0.000000000  0.000000000  5.075185000     0.000000000  0.000000000  0.197037152

  length of vectors
     3.198485888  3.198485888  5.075185000     0.361014728  0.361014728  0.197037152


 
 k-points in units of 2pi/SCALE and weight: K-Points                                
   0.00000000  0.00000000  0.00000000       0.001
   0.02842254 -0.01640976  0.00000000       0.005
   0.05684508 -0.03281952  0.00000000       0.005
   0.08526761 -0.04922928  0.00000000       0.005
   0.11369015 -0.06563904  0.00000000       0.005
   0.14211269 -0.08204880  0.00000000       0.005
   0.05684508  0.00000000  0.00000000       0.005
   0.08526761 -0.01640976  0.00000000       0.009
   0.11369015 -0.03281952  0.00000000       0.009
   0.14211269 -0.04922928  0.00000000       0.009
   0.17053523 -0.06563904  0.00000000       0.005
   0.11369015 -0.00000000  0.00000000       0.005
   0.14211269 -0.01640976  0.00000000       0.009
   0.17053523 -0.03281952  0.00000000       0.009
   0.17053523 -0.00000000  0.00000000       0.005
   0.19895777 -0.01640976  0.00000000       0.005
   0.00000000  0.00000000  0.01791247       0.002
   0.02842254 -0.01640976  0.01791247       0.009
   0.05684508 -0.03281952  0.01791247       0.009
   0.08526761 -0.04922928  0.01791247       0.009
   0.11369015 -0.06563904  0.01791247       0.009
   0.14211269 -0.08204880  0.01791247       0.009
   0.05684508  0.00000000  0.01791247       0.009
   0.08526761 -0.01640976  0.01791247       0.018
   0.11369015 -0.03281952  0.01791247       0.018
   0.14211269 -0.04922928  0.01791247       0.018
   0.17053523 -0.06563904  0.01791247       0.009
   0.11369015 -0.00000000  0.01791247       0.009
   0.14211269 -0.01640976  0.01791247       0.018
   0.17053523 -0.03281952  0.01791247       0.018
   0.17053523 -0.00000000  0.01791247       0.009
   0.19895777 -0.01640976  0.01791247       0.009
   0.00000000  0.00000000  0.03582494       0.002
   0.02842254 -0.01640976  0.03582494       0.009
   0.05684508 -0.03281952  0.03582494       0.009
   0.08526761 -0.04922928  0.03582494       0.009
   0.11369015 -0.06563904  0.03582494       0.009
   0.14211269 -0.08204880  0.03582494       0.009
   0.05684508  0.00000000  0.03582494       0.009
   0.08526761 -0.01640976  0.03582494       0.018
   0.11369015 -0.03281952  0.03582494       0.018
   0.14211269 -0.04922928  0.03582494       0.018
   0.17053523 -0.06563904  0.03582494       0.009
   0.11369015 -0.00000000  0.03582494       0.009
   0.14211269 -0.01640976  0.03582494       0.018
   0.17053523 -0.03281952  0.03582494       0.018
   0.17053523 -0.00000000  0.03582494       0.009
   0.19895777 -0.01640976  0.03582494       0.009
   0.00000000  0.00000000  0.05373741       0.002
   0.02842254 -0.01640976  0.05373741       0.009
   0.05684508 -0.03281952  0.05373741       0.009
   0.08526761 -0.04922928  0.05373741       0.009
   0.11369015 -0.06563904  0.05373741       0.009
   0.14211269 -0.08204880  0.05373741       0.009
   0.05684508  0.00000000  0.05373741       0.009
   0.08526761 -0.01640976  0.05373741       0.018
   0.11369015 -0.03281952  0.05373741       0.018
   0.14211269 -0.04922928  0.05373741       0.018
   0.17053523 -0.06563904  0.05373741       0.009
   0.11369015 -0.00000000  0.05373741       0.009
   0.14211269 -0.01640976  0.05373741       0.018
   0.17053523 -0.03281952  0.05373741       0.018
   0.17053523 -0.00000000  0.05373741       0.009
   0.19895777 -0.01640976  0.05373741       0.009
   0.00000000  0.00000000  0.07164987       0.002
   0.02842254 -0.01640976  0.07164987       0.009
   0.05684508 -0.03281952  0.07164987       0.009
   0.08526761 -0.04922928  0.07164987       0.009
   0.11369015 -0.06563904  0.07164987       0.009
   0.14211269 -0.08204880  0.07164987       0.009
   0.05684508  0.00000000  0.07164987       0.009
   0.08526761 -0.01640976  0.07164987       0.018
   0.11369015 -0.03281952  0.07164987       0.018
   0.14211269 -0.04922928  0.07164987       0.018
   0.17053523 -0.06563904  0.07164987       0.009
   0.11369015 -0.00000000  0.07164987       0.009
   0.14211269 -0.01640976  0.07164987       0.018
   0.17053523 -0.03281952  0.07164987       0.018
   0.17053523 -0.00000000  0.07164987       0.009
   0.19895777 -0.01640976  0.07164987       0.009
   0.00000000  0.00000000  0.08956234       0.002
   0.02842254 -0.01640976  0.08956234       0.009
   0.05684508 -0.03281952  0.08956234       0.009
   0.08526761 -0.04922928  0.08956234       0.009
   0.11369015 -0.06563904  0.08956234       0.009
   0.14211269 -0.08204880  0.08956234       0.009
   0.05684508  0.00000000  0.08956234       0.009
   0.08526761 -0.01640976  0.08956234       0.018
   0.11369015 -0.03281952  0.08956234       0.018
   0.14211269 -0.04922928  0.08956234       0.018
   0.17053523 -0.06563904  0.08956234       0.009
   0.11369015 -0.00000000  0.08956234       0.009
   0.14211269 -0.01640976  0.08956234       0.018
   0.17053523 -0.03281952  0.08956234       0.018
   0.17053523 -0.00000000  0.08956234       0.009
   0.19895777 -0.01640976  0.08956234       0.009
 
 k-points in reciprocal lattice and weights: K-Points                                
   0.00000000  0.00000000  0.00000000       0.001
   0.09090909  0.00000000  0.00000000       0.005
   0.18181818  0.00000000  0.00000000       0.005
   0.27272727  0.00000000  0.00000000       0.005
   0.36363636  0.00000000  0.00000000       0.005
   0.45454545  0.00000000  0.00000000       0.005
   0.09090909  0.09090909  0.00000000       0.005
   0.18181818  0.09090909  0.00000000       0.009
   0.27272727  0.09090909  0.00000000       0.009
   0.36363636  0.09090909  0.00000000       0.009
   0.45454545  0.09090909  0.00000000       0.005
   0.18181818  0.18181818  0.00000000       0.005
   0.27272727  0.18181818  0.00000000       0.009
   0.36363636  0.18181818  0.00000000       0.009
   0.27272727  0.27272727  0.00000000       0.005
   0.36363636  0.27272727  0.00000000       0.005
   0.00000000  0.00000000  0.09090909       0.002
   0.09090909  0.00000000  0.09090909       0.009
   0.18181818  0.00000000  0.09090909       0.009
   0.27272727  0.00000000  0.09090909       0.009
   0.36363636  0.00000000  0.09090909       0.009
   0.45454545  0.00000000  0.09090909       0.009
   0.09090909  0.09090909  0.09090909       0.009
   0.18181818  0.09090909  0.09090909       0.018
   0.27272727  0.09090909  0.09090909       0.018
   0.36363636  0.09090909  0.09090909       0.018
   0.45454545  0.09090909  0.09090909       0.009
   0.18181818  0.18181818  0.09090909       0.009
   0.27272727  0.18181818  0.09090909       0.018
   0.36363636  0.18181818  0.09090909       0.018
   0.27272727  0.27272727  0.09090909       0.009
   0.36363636  0.27272727  0.09090909       0.009
   0.00000000  0.00000000  0.18181818       0.002
   0.09090909  0.00000000  0.18181818       0.009
   0.18181818  0.00000000  0.18181818       0.009
   0.27272727  0.00000000  0.18181818       0.009
   0.36363636  0.00000000  0.18181818       0.009
   0.45454545  0.00000000  0.18181818       0.009
   0.09090909  0.09090909  0.18181818       0.009
   0.18181818  0.09090909  0.18181818       0.018
   0.27272727  0.09090909  0.18181818       0.018
   0.36363636  0.09090909  0.18181818       0.018
   0.45454545  0.09090909  0.18181818       0.009
   0.18181818  0.18181818  0.18181818       0.009
   0.27272727  0.18181818  0.18181818       0.018
   0.36363636  0.18181818  0.18181818       0.018
   0.27272727  0.27272727  0.18181818       0.009
   0.36363636  0.27272727  0.18181818       0.009
   0.00000000  0.00000000  0.27272727       0.002
   0.09090909  0.00000000  0.27272727       0.009
   0.18181818  0.00000000  0.27272727       0.009
   0.27272727  0.00000000  0.27272727       0.009
   0.36363636  0.00000000  0.27272727       0.009
   0.45454545  0.00000000  0.27272727       0.009
   0.09090909  0.09090909  0.27272727       0.009
   0.18181818  0.09090909  0.27272727       0.018
   0.27272727  0.09090909  0.27272727       0.018
   0.36363636  0.09090909  0.27272727       0.018
   0.45454545  0.09090909  0.27272727       0.009
   0.18181818  0.18181818  0.27272727       0.009
   0.27272727  0.18181818  0.27272727       0.018
   0.36363636  0.18181818  0.27272727       0.018
   0.27272727  0.27272727  0.27272727       0.009
   0.36363636  0.27272727  0.27272727       0.009
   0.00000000  0.00000000  0.36363636       0.002
   0.09090909  0.00000000  0.36363636       0.009
   0.18181818  0.00000000  0.36363636       0.009
   0.27272727  0.00000000  0.36363636       0.009
   0.36363636  0.00000000  0.36363636       0.009
   0.45454545  0.00000000  0.36363636       0.009
   0.09090909  0.09090909  0.36363636       0.009
   0.18181818  0.09090909  0.36363636       0.018
   0.27272727  0.09090909  0.36363636       0.018
   0.36363636  0.09090909  0.36363636       0.018
   0.45454545  0.09090909  0.36363636       0.009
   0.18181818  0.18181818  0.36363636       0.009
   0.27272727  0.18181818  0.36363636       0.018
   0.36363636  0.18181818  0.36363636       0.018
   0.27272727  0.27272727  0.36363636       0.009
   0.36363636  0.27272727  0.36363636       0.009
   0.00000000  0.00000000  0.45454545       0.002
   0.09090909  0.00000000  0.45454545       0.009
   0.18181818  0.00000000  0.45454545       0.009
   0.27272727  0.00000000  0.45454545       0.009
   0.36363636  0.00000000  0.45454545       0.009
   0.45454545  0.00000000  0.45454545       0.009
   0.09090909  0.09090909  0.45454545       0.009
   0.18181818  0.09090909  0.45454545       0.018
   0.27272727  0.09090909  0.45454545       0.018
   0.36363636  0.09090909  0.45454545       0.018
   0.45454545  0.09090909  0.45454545       0.009
   0.18181818  0.18181818  0.45454545       0.009
   0.27272727  0.18181818  0.45454545       0.018
   0.36363636  0.18181818  0.45454545       0.018
   0.27272727  0.27272727  0.45454545       0.009
   0.36363636  0.27272727  0.45454545       0.009
 
 position of ions in fractional coordinates (direct lattice) 
   0.66666700  0.33333300  0.25000000
   0.33333300  0.66666700  0.75000000
 
 position of ions in cartesian coordinates  (Angst):
   1.59924300 -0.92332518  1.26879625
   1.59924300  0.92332518  3.80638875
 


--------------------------------------------------------------------------------------------------------


 k-point   1 :   0.0000 0.0000 0.0000  plane waves:    1117
 k-point   2 :   0.0909 0.0000 0.0000  plane waves:    1124
 k-point   3 :   0.1818 0.0000 0.0000  plane waves:    1144
 k-point   4 :   0.2727 0.0000 0.0000  plane waves:    1138
 k-point   5 :   0.3636 0.0000 0.0000  plane waves:    1142
 k-point   6 :   0.4545 0.0000 0.0000  plane waves:    1140
 k-point   7 :   0.0909 0.0909 0.0000  plane waves:    1132
 k-point   8 :   0.1818 0.0909 0.0000  plane waves:    1136
 k-point   9 :   0.2727 0.0909 0.0000  plane waves:    1143
 k-point  10 :   0.3636 0.0909 0.0000  plane waves:    1144
 k-point  11 :   0.4545 0.0909 0.0000  plane waves:    1138
 k-point  12 :   0.1818 0.1818 0.0000  plane waves:    1146
 k-point  13 :   0.2727 0.1818 0.0000  plane waves:    1141
 k-point  14 :   0.3636 0.1818 0.0000  plane waves:    1138
 k-point  15 :   0.2727 0.2727 0.0000  plane waves:    1148
 k-point  16 :   0.3636 0.2727 0.0000  plane waves:    1156
 k-point  17 :   0.0000 0.0000 0.0909  plane waves:    1111
 k-point  18 :   0.0909 0.0000 0.0909  plane waves:    1123
 k-point  19 :   0.1818 0.0000 0.0909  plane waves:    1140
 k-point  20 :   0.2727 0.0000 0.0909  plane waves:    1143
 k-point  21 :   0.3636 0.0000 0.0909  plane waves:    1147
 k-point  22 :   0.4545 0.0000 0.0909  plane waves:    1149
 k-point  23 :   0.0909 0.0909 0.0909  plane waves:    1137
 k-point  24 :   0.1818 0.0909 0.0909  plane waves:    1131
 k-point  25 :   0.2727 0.0909 0.0909  plane waves:    1145
 k-point  26 :   0.3636 0.0909 0.0909  plane waves:    1148
 k-point  27 :   0.4545 0.0909 0.0909  plane waves:    1145
 k-point  28 :   0.1818 0.1818 0.0909  plane waves:    1142
 k-point  29 :   0.2727 0.1818 0.0909  plane waves:    1148
 k-point  30 :   0.3636 0.1818 0.0909  plane waves:    1143
 k-point  31 :   0.2727 0.2727 0.0909  plane waves:    1145
 k-point  32 :   0.3636 0.2727 0.0909  plane waves:    1150
 k-point  33 :   0.0000 0.0000 0.1818  plane waves:    1135
 k-point  34 :   0.0909 0.0000 0.1818  plane waves:    1128
 k-point  35 :   0.1818 0.0000 0.1818  plane waves:    1127
 k-point  36 :   0.2727 0.0000 0.1818  plane waves:    1136
 k-point  37 :   0.3636 0.0000 0.1818  plane waves:    1143
 k-point  38 :   0.4545 0.0000 0.1818  plane waves:    1150
 k-point  39 :   0.0909 0.0909 0.1818  plane waves:    1137
 k-point  40 :   0.1818 0.0909 0.1818  plane waves:    1132
 k-point  41 :   0.2727 0.0909 0.1818  plane waves:    1144
 k-point  42 :   0.3636 0.0909 0.1818  plane waves:    1152
 k-point  43 :   0.4545 0.0909 0.1818  plane waves:    1145
 k-point  44 :   0.1818 0.1818 0.1818  plane waves:    1144
 k-point  45 :   0.2727 0.1818 0.1818  plane waves:    1142
 k-point  46 :   0.3636 0.1818 0.1818  plane waves:    1146
 k-point  47 :   0.2727 0.2727 0.1818  plane waves:    1143
 k-point  48 :   0.3636 0.2727 0.1818  plane waves:    1144
 k-point  49 :   0.0000 0.0000 0.2727  plane waves:    1140
 k-point  50 :   0.0909 0.0000 0.2727  plane waves:    1139
 k-point  51 :   0.1818 0.0000 0.2727  plane waves:    1127
 k-point  52 :   0.2727 0.0000 0.2727  plane waves:    1141
 k-point  53 :   0.3636 0.0000 0.2727  plane waves:    1143
 k-point  54 :   0.4545 0.0000 0.2727  plane waves:    1152
 k-point  55 :   0.0909 0.0909 0.2727  plane waves:    1135
 k-point  56 :   0.1818 0.0909 0.2727  plane waves:    1137
 k-point  57 :   0.2727 0.0909 0.2727  plane waves:    1142
 k-point  58 :   0.3636 0.0909 0.2727  plane waves:    1144
 k-point  59 :   0.4545 0.0909 0.2727  plane waves:    1145
 k-point  60 :   0.1818 0.1818 0.2727  plane waves:    1138
 k-point  61 :   0.2727 0.1818 0.2727  plane waves:    1140
 k-point  62 :   0.3636 0.1818 0.2727  plane waves:    1142
 k-point  63 :   0.2727 0.2727 0.2727  plane waves:    1147
 k-point  64 :   0.3636 0.2727 0.2727  plane waves:    1134
 k-point  65 :   0.0000 0.0000 0.3636  plane waves:    1158
 k-point  66 :   0.0909 0.0000 0.3636  plane waves:    1146
 k-point  67 :   0.1818 0.0000 0.3636  plane waves:    1135
 k-point  68 :   0.2727 0.0000 0.3636  plane waves:    1140
 k-point  69 :   0.3636 0.0000 0.3636  plane waves:    1149
 k-point  70 :   0.4545 0.0000 0.3636  plane waves:    1147
 k-point  71 :   0.0909 0.0909 0.3636  plane waves:    1135
 k-point  72 :   0.1818 0.0909 0.3636  plane waves:    1137
 k-point  73 :   0.2727 0.0909 0.3636  plane waves:    1147
 k-point  74 :   0.3636 0.0909 0.3636  plane waves:    1142
 k-point  75 :   0.4545 0.0909 0.3636  plane waves:    1141
 k-point  76 :   0.1818 0.1818 0.3636  plane waves:    1140
 k-point  77 :   0.2727 0.1818 0.3636  plane waves:    1147
 k-point  78 :   0.3636 0.1818 0.3636  plane waves:    1135
 k-point  79 :   0.2727 0.2727 0.3636  plane waves:    1145
 k-point  80 :   0.3636 0.2727 0.3636  plane waves:    1131
 k-point  81 :   0.0000 0.0000 0.4545  plane waves:    1152
 k-point  82 :   0.0909 0.0000 0.4545  plane waves:    1140
 k-point  83 :   0.1818 0.0000 0.4545  plane waves:    1140
 k-point  84 :   0.2727 0.0000 0.4545  plane waves:    1150
 k-point  85 :   0.3636 0.0000 0.4545  plane waves:    1152
 k-point  86 :   0.4545 0.0000 0.4545  plane waves:    1144
 k-point  87 :   0.0909 0.0909 0.4545  plane waves:    1134
 k-point  88 :   0.1818 0.0909 0.4545  plane waves:    1140
 k-point  89 :   0.2727 0.0909 0.4545  plane waves:    1146
 k-point  90 :   0.3636 0.0909 0.4545  plane waves:    1146
 k-point  91 :   0.4545 0.0909 0.4545  plane waves:    1143
 k-point  92 :   0.1818 0.1818 0.4545  plane waves:    1141
 k-point  93 :   0.2727 0.1818 0.4545  plane waves:    1141
 k-point  94 :   0.3636 0.1818 0.4545  plane waves:    1134
 k-point  95 :   0.2727 0.2727 0.4545  plane waves:    1143
 k-point  96 :   0.3636 0.2727 0.4545  plane waves:    1132

 maximum and minimum number of plane-waves per node :      1158     1111

 maximum number of plane-waves:      1158
 maximum index in each direction: 
   IXMAX=    5   IYMAX=    5   IZMAX=    9
   IXMIN=   -6   IYMIN=   -6   IZMIN=   -9


 serial   3D FFT for wavefunctions
 parallel 3D FFT for charge:
    minimum data exchange during FFTs selected (reduces bandwidth)


 total amount of memory used by VASP MPI-rank0    48943. kBytes
=======================================================================

   base      :      30000. kBytes
   nonl-proj :      16294. kBytes
   fftplans  :        172. kBytes
   grid      :        566. kBytes
   one-center:         31. kBytes
   wavefun   :       1880. kBytes
 
     INWAV:  cpu time      0.0000: real time      0.0001
 Broyden mixing: mesh for mixing (old mesh)
   NGX = 11   NGY = 11   NGZ = 19
  (NGX  = 36   NGY  = 36   NGZ  = 56)
  gives a total of   2299 points

 initial charge density was supplied:
 charge density of overlapping atoms calculated
 number of electron       8.0000000 magnetization 
 keeping initial charge density in first step


--------------------------------------------------------------------------------------------------------


 Maximum index for augmentation-charges          884 (set IRDMAX)


--------------------------------------------------------------------------------------------------------


 First call to EWALD:  gamma=   0.498
 Maximum number of real-space cells 3x 3x 2
 Maximum number of reciprocal cells 3x 3x 4

    FEWALD:  cpu time      0.0009: real time      0.0009


--------------------------------------- Iteration      1(   1)  ---------------------------------------


    POTLOK:  cpu time      0.0022: real time      0.0089
    SETDIJ:  cpu time      0.0046: real time      0.0065
     EDDAV:  cpu time      0.2811: real time      0.2854
       DOS:  cpu time      0.0011: real time      0.0048
    --------------------------------------------
      LOOP:  cpu time      0.2889: real time      0.3056

 eigenvalue-minimisations  :  4608
 total energy-change (2. order) :-0.1227866E+02  (-0.3214877E+03)
 number of electron       8.0000000 magnetization 
 augmentation part        8.0000000 magnetization 

 Free energy of the ion-electron system (eV)
  ---------------------------------------------------
  alpha Z        PSCENC =        29.36899766
  Ewald energy   TEWEN  =      -235.73844108
  -Hartree energ DENC   =        -2.11251009
  -exchange      EXHF   =         0.00000000
  -V(xc)+E(xc)   XCENC  =      -106.42030778
  PAW double counting   =       247.12372627     -130.28340561
  entropy T*S    EENTRO =        -0.00819404
  eigenvalues    EBANDS =        33.99077049
  atomic energy  EATOM  =       151.80070846
  Solvation  Ediel_sol  =         0.00000000
  ---------------------------------------------------
  free energy    TOTEN  =       -12.27865572 eV

  energy without entropy =      -12.27046168  energy(sigma->0) =      -12.27455870


--------------------------------------------------------------------------------------------------------




--------------------------------------- Iteration      1(   2)  ---------------------------------------


     EDDAV:  cpu time      0.4798: real time      0.4827
       DOS:  cpu time      0.0004: real time      0.0004
    --------------------------------------------
      LOOP:  cpu time      0.4802: real time      0.4831

 eigenvalue-minimisations  :  6888
 total energy-change (2. order) :-0.8389732E+01  (-0.8271264E+01)
 number of electron       8.0000000 magnetization 
 augmentation part        8.0000000 magnetization 

 Free energy of the ion-electron system (eV)
  ---------------------------------------------------
  alpha Z        PSCENC =        29.36899766
  Ewald energy   TEWEN  =      -235.73844108
  -Hartree energ DENC   =        -2.11251009
  -exchange      EXHF   =         0.00000000
  -V(xc)+E(xc)   XCENC  =      -106.42030778
  PAW double counting   =       247.12372627     -130.28340561
  entropy T*S    EENTRO =        -0.00676520
  eigenvalues    EBANDS =        25.59961008
  atomic energy  EATOM  =       151.80070846
  Solvation  Ediel_sol  =         0.00000000
  ---------------------------------------------------
  free energy    TOTEN  =       -20.66838729 eV

  energy without entropy =      -20.66162209  energy(sigma->0) =      -20.66500469


--------------------------------------------------------------------------------------------------------




--------------------------------------- Iteration      1(   3)  ---------------------------------------


     EDDAV:  cpu time      0.2726: real time      0.2743
       DOS:  cpu time      0.0004: real time      0.0004
    --------------------------------------------
      LOOP:  cpu time      0.2730: real time      0.2747

 eigenvalue-minimisations  :  4632
 total energy-change (2. order) :-0.1510826E-01  (-0.1510748E-01)
 number of electron       8.0000000 magnetization 
 augmentation part        8.0000000 magnetization 

 Free energy of the ion-electron system (eV)
  ---------------------------------------------------
  alpha Z        PSCENC =        29.36899766
  Ewald energy   TEWEN  =      -235.73844108
  -Hartree energ DENC   =        -2.11251009
  -exchange      EXHF   =         0.00000000
  -V(xc)+E(xc)   XCENC  =      -106.42030778
  PAW double counting   =       247.12372627     -130.28340561
  entropy T*S    EENTRO =        -0.00675233
  eigenvalues    EBANDS =        25.58448894
  atomic energy  EATOM  =       151.80070846
  Solvation  Ediel_sol  =         0.00000000
  ---------------------------------------------------
  free energy    TOTEN  =       -20.68349556 eV

  energy without entropy =      -20.67674323  energy(sigma->0) =      -20.68011939


--------------------------------------------------------------------------------------------------------




--------------------------------------- Iteration      1(   4)  ---------------------------------------


     EDDAV:  cpu time      0.6376: real time      0.6409
       DOS:  cpu time      0.0004: real time      0.0004
    --------------------------------------------
      LOOP:  cpu time      0.6380: real time      0.6413

 eigenvalue-minimisations  :  8208
 total energy-change (2. order) :-0.4687573E-05  (-0.4687225E-05)
 number of electron       8.0000000 magnetization 
 augmentation part        8.0000000 magnetization 

 Free energy of the ion-electron system (eV)
  ---------------------------------------------------
  alpha Z        PSCENC =        29.36899766
  Ewald energy   TEWEN  =      -235.73844108
  -Hartree energ DENC   =        -2.11251009
  -exchange      EXHF   =         0.00000000
  -V(xc)+E(xc)   XCENC  =      -106.42030778
  PAW double counting   =       247.12372627     -130.28340561
  entropy T*S    EENTRO =        -0.00675233
  eigenvalues    EBANDS =        25.58448425
  atomic energy  EATOM  =       151.80070846
  Solvation  Ediel_sol  =         0.00000000
  ---------------------------------------------------
  free energy    TOTEN  =       -20.68350024 eV

  energy without entropy =      -20.67674792  energy(sigma->0) =      -20.68012408


--------------------------------------------------------------------------------------------------------




--------------------------------------- Iteration      1(   5)  ---------------------------------------


     EDDAV:  cpu time      0.2689: real time      0.2706
       DOS:  cpu time      0.0004: real time      0.0004
    CHARGE:  cpu time      0.0078: real time      0.0078
    MIXING:  cpu time      0.0006: real time      0.0037
    --------------------------------------------
      LOOP:  cpu time      0.2776: real time      0.2825

 eigenvalue-minimisations  :  4608
 total energy-change (2. order) :-0.5786660E-09  (-0.2823764E-10)
 number of electron       8.0000001 magnetization 
 augmentation part        0.3269835 magnetization 

 Broyden mixing:
  rms(total) = 0.12362E+01    rms(broyden)= 0.12362E+01
  rms(prec ) = 0.14690E+01
  weight for this iteration     100.00

 Free energy of the ion-electron system (eV)
  ---------------------------------------------------
  alpha Z        PSCENC =        29.36899766
  Ewald energy   TEWEN  =      -235.73844108
  -Hartree energ DENC   =        -2.11251009
  -exchange      EXHF   =         0.00000000
  -V(xc)+E(xc)   XCENC  =      -106.42030778
  PAW double counting   =       247.12372627     -130.28340561
  entropy T*S    EENTRO =        -0.00675233
  eigenvalues    EBANDS =        25.58448425
  atomic energy  EATOM  =       151.80070846
  Solvation  Ediel_sol  =         0.00000000
  ---------------------------------------------------
  free energy    TOTEN  =       -20.68350024 eV

  energy without entropy =      -20.67674792  energy(sigma->0) =      -20.68012408


--------------------------------------------------------------------------------------------------------




--------------------------------------- Iteration      1(   6)  ---------------------------------------


    POTLOK:  cpu time      0.0017: real time      0.0018
    SETDIJ:  cpu time      0.0014: real time      0.0014
     EDDAV:  cpu time      0.3367: real time      0.3386
       DOS:  cpu time      0.0004: real time      0.0004
    CHARGE:  cpu time      0.0072: real time      0.0072
    MIXING:  cpu time      0.0002: real time      0.0002
    --------------------------------------------
      LOOP:  cpu time      0.3476: real time      0.3496

 eigenvalue-minimisations  :  5280
 total energy-change (2. order) : 0.4921076E+00  (-0.2327593E-01)
 number of electron       8.0000001 magnetization 
 augmentation part        0.3479301 magnetization 

 Broyden mixing:
  rms(total) = 0.61833E+00    rms(broyden)= 0.61833E+00
  rms(prec ) = 0.76893E+00
  weight for this iteration     100.00

 eigenvalues of (default mixing * dielectric matrix)
  average eigenvalue GAMMA=   1.9881
  1.9881

 Free energy of the ion-electron system (eV)
  ---------------------------------------------------
  alpha Z        PSCENC =        29.36899766
  Ewald energy   TEWEN  =      -235.73844108
  -Hartree energ DENC   =        -1.02351513
  -exchange      EXHF   =         0.00000000
  -V(xc)+E(xc)   XCENC  =      -105.88861090
  PAW double counting   =       391.88382918     -275.40727421
  entropy T*S    EENTRO =        -0.00730876
  eigenvalues    EBANDS =        24.82022208
  atomic energy  EATOM  =       151.80070846
  Solvation  Ediel_sol  =         0.00000000
  ---------------------------------------------------
  free energy    TOTEN  =       -20.19139269 eV

  energy without entropy =      -20.18408393  energy(sigma->0) =      -20.18773831


--------------------------------------------------------------------------------------------------------




--------------------------------------- Iteration      1(   7)  ---------------------------------------


    POTLOK:  cpu time      0.0016: real time      0.0017
    SETDIJ:  cpu time      0.0012: real time      0.0012
     EDDAV:  cpu time      0.4127: real time      0.4149
       DOS:  cpu time      0.0004: real time      0.0004
    CHARGE:  cpu time      0.0073: real time      0.0073
    MIXING:  cpu time      0.0002: real time      0.0002
    --------------------------------------------
      LOOP:  cpu time      0.4233: real time      0.4257

 eigenvalue-minimisations  :  6096
 total energy-change (2. order) : 0.2702512E+00  (-0.4137336E-01)
 number of electron       8.0000001 magnetization 
 augmentation part        0.3763924 magnetization 

 Broyden mixing:
  rms(total) = 0.62891E-01    rms(broyden)= 0.62891E-01
  rms(prec ) = 0.77160E-01
  weight for this iteration     100.00

 eigenvalues of (default mixing * dielectric matrix)
  average eigenvalue GAMMA=   2.2108
  2.2108  2.2108

 Free energy of the ion-electron system (eV)
  ---------------------------------------------------
  alpha Z        PSCENC =        29.36899766
  Ewald energy   TEWEN  =      -235.73844108
  -Hartree energ DENC   =        -0.34852086
  -exchange      EXHF   =         0.00000000
  -V(xc)+E(xc)   XCENC  =      -105.16094079
  PAW double counting   =       632.30386813     -516.19535995
  entropy T*S    EENTRO =        -0.00750082
  eigenvalues    EBANDS =        24.05604775
  atomic energy  EATOM  =       151.80070846
  Solvation  Ediel_sol  =         0.00000000
  ---------------------------------------------------
  free energy    TOTEN  =       -19.92114151 eV

  energy without entropy =      -19.91364069  energy(sigma->0) =      -19.91739110


--------------------------------------------------------------------------------------------------------




--------------------------------------- Iteration      1(   8)  ---------------------------------------


    POTLOK:  cpu time      0.0016: real time      0.0018
    SETDIJ:  cpu time      0.0012: real time      0.0012
     EDDAV:  cpu time      0.4136: real time      0.4159
       DOS:  cpu time      0.0004: real time      0.0004
    CHARGE:  cpu time      0.0076: real time      0.0077
    MIXING:  cpu time      0.0002: real time      0.0002
    --------------------------------------------
      LOOP:  cpu time      0.4245: real time      0.4271

 eigenvalue-minimisations  :  6168
 total energy-change (2. order) : 0.3817883E-02  (-0.4160792E-03)
 number of electron       8.0000001 magnetization 
 augmentation part        0.3796862 magnetization 

 Broyden mixing:
  rms(total) = 0.95866E-02    rms(broyden)= 0.95865E-02
  rms(prec ) = 0.16630E-01
  weight for this iteration     100.00

 eigenvalues of (default mixing * dielectric matrix)
  average eigenvalue GAMMA=   1.9086
  0.9785  2.2806  2.4668

 Free energy of the ion-electron system (eV)
  ---------------------------------------------------
  alpha Z        PSCENC =        29.36899766
  Ewald energy   TEWEN  =      -235.73844108
  -Hartree energ DENC   =        -0.33464425
  -exchange      EXHF   =         0.00000000
  -V(xc)+E(xc)   XCENC  =      -105.10612340
  PAW double counting   =       635.96789374     -519.93126612
  entropy T*S    EENTRO =        -0.00752169
  eigenvalues    EBANDS =        24.06307308
  atomic energy  EATOM  =       151.80070846
  Solvation  Ediel_sol  =         0.00000000
  ---------------------------------------------------
  free energy    TOTEN  =       -19.91732362 eV

  energy without entropy =      -19.90980193  energy(sigma->0) =      -19.91356278


--------------------------------------------------------------------------------------------------------




--------------------------------------- Iteration      1(   9)  ---------------------------------------


    POTLOK:  cpu time      0.0017: real time      0.0018
    SETDIJ:  cpu time      0.0014: real time      0.0014
     EDDAV:  cpu time      0.4687: real time      0.4720
       DOS:  cpu time      0.0004: real time      0.0004
    CHARGE:  cpu time      0.0073: real time      0.0073
    MIXING:  cpu time      0.0002: real time      0.0020
    --------------------------------------------
      LOOP:  cpu time      0.4796: real time      0.4848

 eigenvalue-minimisations  :  6648
 total energy-change (2. order) : 0.2699245E-03  (-0.6214950E-04)
 number of electron       8.0000001 magnetization 
 augmentation part        0.3809701 magnetization 

 Broyden mixing:
  rms(total) = 0.28467E-02    rms(broyden)= 0.28466E-02
  rms(prec ) = 0.30851E-02
  weight for this iteration     100.00

 eigenvalues of (default mixing * dielectric matrix)
  average eigenvalue GAMMA=   2.0428
  0.9910  2.6618  2.3496  2.1688

 Free energy of the ion-electron system (eV)
  ---------------------------------------------------
  alpha Z        PSCENC =        29.36899766
  Ewald energy   TEWEN  =      -235.73844108
  -Hartree energ DENC   =        -0.32634708
  -exchange      EXHF   =         0.00000000
  -V(xc)+E(xc)   XCENC  =      -105.08000330
  PAW double counting   =       645.22778659     -529.21049766
  entropy T*S    EENTRO =        -0.00753675
  eigenvalues    EBANDS =        24.04827946
  atomic energy  EATOM  =       151.80070846
  Solvation  Ediel_sol  =         0.00000000
  ---------------------------------------------------
  free energy    TOTEN  =       -19.91705370 eV

  energy without entropy =      -19.90951695  energy(sigma->0) =      -19.91328532


--------------------------------------------------------------------------------------------------------




--------------------------------------- Iteration      1(  10)  ---------------------------------------


    POTLOK:  cpu time      0.0016: real time      0.0018
    SETDIJ:  cpu time      0.0012: real time      0.0012
     EDDAV:  cpu time      0.1810: real time      0.1820
       DOS:  cpu time      0.0004: real time      0.0004
    --------------------------------------------
      LOOP:  cpu time      0.1841: real time      0.1853

 eigenvalue-minimisations  :  3000
 total energy-change (2. order) :-0.1023001E-05  (-0.4411943E-06)
 number of electron       8.0000001 magnetization 
 augmentation part        0.3809701 magnetization 

 Free energy of the ion-electron system (eV)
  ---------------------------------------------------
  alpha Z        PSCENC =        29.36899766
  Ewald energy   TEWEN  =      -235.73844108
  -Hartree energ DENC   =        -0.32627120
  -exchange      EXHF   =         0.00000000
  -V(xc)+E(xc)   XCENC  =      -105.08194905
  PAW double counting   =       648.24164505     -532.22265617
  entropy T*S    EENTRO =        -0.00753593
  eigenvalues    EBANDS =        24.04844755
  atomic energy  EATOM  =       151.80070846
  Solvation  Ediel_sol  =         0.00000000
  ---------------------------------------------------
  free energy    TOTEN  =       -19.91705472 eV

  energy without entropy =      -19.90951879  energy(sigma->0) =      -19.91328676


--------------------------------------------------------------------------------------------------------




 average (electrostatic) potential at core
  the test charge radii are     1.2481
  (the norm of the test charge is              1.0000)
       1 -35.9556       2 -35.9556
 
 
 
 E-fermi :   5.2202     XC(G=0): -10.9878     alpha+bet :-12.2082

 Fermi energy:         5.2202245263

 k-point     1 :       0.0000    0.0000    0.0000
  band No.  band energies     occupation 
      1      -2.1411      2.00000
      2       1.5177      2.00000
      3       5.7999      0.00000
      4       6.3922      0.00000
      5       6.3922      0.00000
      6       6.6337      0.00000
      7       7.1962      0.00000
      8       7.1962      0.00000
      9       7.8493      0.00000
     10       7.8493      0.00000
     11      10.5048      0.00000
     12      10.5048      0.00000
     13      14.0105      0.00000
     14      16.2853      0.00000
     15      17.4883      0.00000
     16      17.4945      0.00000
     17      18.2685      0.00000
     18      19.7075      0.00000
     19      22.5836      0.00000
     20      22.5836      0.00000
     21      22.9543      0.00000
     22      23.3390      0.00000
     23      23.3390      0.00000
     24      26.1882      0.00000

 k-point     2 :       0.0909    0.0000    0.0000
  band No.  band energies     occupation 
      1      -1.8976      2.00000
      2       1.7606      2.00000
      3       5.4830      0.00020
      4       5.8307      0.00000
      5       6.6260      0.00000
      6       6.9053      0.00000
      7       7.0845      0.00000
      8       7.4180      0.00000
      9       7.5412      0.00000
     10       7.6197      0.00000
     11      10.6873      0.00000
     12      11.1131      0.00000
     13      14.0740      0.00000
     14      16.9174      0.00000
     15      17.4885      0.00000
     16      17.4951      0.00000
     17      18.6447      0.00000
     18      20.0859      0.00000
     19      21.0729      0.00000
     20      21.5777      0.00000
     21      21.7539      0.00000
     22      23.5903      0.00000
     23      25.6674      0.00000
     24      26.5492      0.00000

 k-point     3 :       0.1818    0.0000    0.0000
  band No.  band energies     occupation 
      1      -1.2060      2.00000
      2       2.3903      2.00000
      3       4.7489      2.00000
      4       5.0840      1.94594
      5       6.3348      0.00000
      6       7.0261      0.00000
      7       7.1268      0.00000
      8       7.3121      0.00000
      9       7.6840      0.00000
     10       8.0621      0.00000
     11      11.0419      0.00000
     12      12.3802      0.00000
     13      13.9813      0.00000
     14      17.4862      0.00000
     15      17.4950      0.00000
     16      18.2987      0.00000
     17      18.8877      0.00000
     18      19.9269      0.00000
     19      20.1528      0.00000
     20      20.2588      0.00000
     21      21.3016      0.00000
     22      24.3654      0.00000
     23      25.4053      0.00000
     24      25.5077      0.00000

 k-point     4 :       0.2727    0.0000    0.0000
  band No.  band energies     occupation 
      1      -0.1907      2.00000
      2       2.9481      2.00000
      3       3.9651      2.00000
      4       4.6035      2.00000
      5       5.9538      0.00000
      6       6.5715      0.00000
      7       6.6255      0.00000
      8       8.3993      0.00000
      9       8.5284      0.00000
     10       9.0533      0.00000
     11      11.3409      0.00000
     12      13.5447      0.00000
     13      13.7749      0.00000
     14      17.1402      0.00000
     15      17.4884      0.00000
     16      17.4972      0.00000
     17      17.7895      0.00000
     18      18.3436      0.00000
     19      21.2896      0.00000
     20      21.3860      0.00000
     21      21.5369      0.00000
     22      23.7903      0.00000
     23      24.6765      0.00000
     24      25.2279      0.00000

 k-point     5 :       0.3636    0.0000    0.0000
  band No.  band energies     occupation 
      1       0.9108      2.00000
      2       2.8540      2.00000
      3       3.3574      2.00000
      4       4.4712      2.00000
      5       6.2424      0.00000
      6       6.2447      0.00000
      7       6.3061      0.00000
      8       9.6949      0.00000
      9       9.7631      0.00000
     10      10.2228      0.00000
     11      11.5193      0.00000
     12      13.1430      0.00000
     13      15.0037      0.00000
     14      15.1397      0.00000
     15      16.4759      0.00000
     16      16.9190      0.00000
     17      17.4685      0.00000
     18      17.4936      0.00000
     19      18.4317      0.00000
     20      21.7445      0.00000
     21      22.5993      0.00000
     22      23.3079      0.00000
     23      25.6254      0.00000
     24      25.7183      0.00000

 k-point     6 :       0.4545    0.0000    0.0000
  band No.  band energies     occupation 
      1       1.7287      2.00000
      2       2.5557      2.00000
      3       3.0321      2.00000
      4       4.4036      2.00000
      5       6.0426      0.00000
      6       6.0712      0.00000
      7       6.7982      0.00000
      8      10.9075      0.00000
      9      11.2704      0.00000
     10      11.3137      0.00000
     11      11.5953      0.00000
     12      13.1428      0.00000
     13      13.4516      0.00000
     14      14.8752      0.00000
     15      15.7989      0.00000
     16      15.7990      0.00000
     17      16.4181      0.00000
     18      17.4931      0.00000
     19      17.5047      0.00000
     20      20.9653      0.00000
     21      21.5387      0.00000
     22      23.8216      0.00000
     23      27.4277      0.00000
     24      28.1387      0.00000

 k-point     7 :       0.0909    0.0909    0.0000
  band No.  band energies     occupation 
      1      -1.4286      2.00000
      2       2.2081      2.00000
      3       4.9742      1.99950
      4       5.2553      0.62035
      5       6.5146      0.00000
      6       6.9936      0.00000
      7       7.1131      0.00000
      8       7.3926      0.00000
      9       7.4381      0.00000
     10       7.9251      0.00000
     11      10.8829      0.00000
     12      12.0655      0.00000
     13      14.0451      0.00000
     14      17.4862      0.00000
     15      17.4953      0.00000
     16      17.9817      0.00000
     17      19.2746      0.00000
     18      19.8774      0.00000
     19      20.1865      0.00000
     20      20.5925      0.00000
     21      20.9402      0.00000
     22      24.1682      0.00000
     23      25.9306      0.00000
     24      26.5779      0.00000

 k-point     8 :       0.1818    0.0909    0.0000
  band No.  band energies     occupation 
      1      -0.5637      2.00000
      2       2.9006      2.00000
      3       4.2636      2.00000
      4       4.6090      2.00000
      5       6.0292      0.00000
      6       6.4113      0.00000
      7       7.0763      0.00000
      8       7.9328      0.00000
      9       8.0575      0.00000
     10       8.8569      0.00000
     11      11.1195      0.00000
     12      13.4118      0.00000
     13      13.7411      0.00000
     14      17.4822      0.00000
     15      17.4938      0.00000
     16      17.9577      0.00000
     17      18.5282      0.00000
     18      18.5863      0.00000
     19      20.3963      0.00000
     20      20.5819      0.00000
     21      22.2920      0.00000
     22      23.9168      0.00000
     23      24.7705      0.00000
     24      25.3983      0.00000

 k-point     9 :       0.2727    0.0909    0.0000
  band No.  band energies     occupation 
      1       0.5318      2.00000
      2       3.1596      2.00000
      3       3.6116      2.00000
      4       4.3673      2.00000
      5       6.0024      0.00000
      6       6.0263      0.00000
      7       6.6229      0.00000
      8       8.7747      0.00000
      9       9.2928      0.00000
     10      10.0527      0.00000
     11      11.3054      0.00000
     12      13.2979      0.00000
     13      14.7690      0.00000
     14      15.9339      0.00000
     15      16.6782      0.00000
     16      17.4899      0.00000
     17      17.4941      0.00000
     18      17.6189      0.00000
     19      20.2404      0.00000
     20      21.3028      0.00000
     21      22.6767      0.00000
     22      23.5011      0.00000
     23      24.5775      0.00000
     24      25.3991      0.00000

 k-point    10 :       0.3636    0.0909    0.0000
  band No.  band energies     occupation 
      1       1.5571      2.00000
      2       2.8786      2.00000
      3       3.1704      2.00000
      4       4.3193      2.00000
      5       5.8702      0.00000
      6       6.2212      0.00000
      7       6.5979      0.00000
      8       9.8949      0.00000
      9      10.4680      0.00000
     10      11.3448      0.00000
     11      11.4037      0.00000
     12      13.2542      0.00000
     13      14.0241      0.00000
     14      14.7340      0.00000
     15      15.8524      0.00000
     16      16.9904      0.00000
     17      17.4269      0.00000
     18      17.4931      0.00000
     19      17.7087      0.00000
     20      21.3797      0.00000
     21      21.4262      0.00000
     22      24.3130      0.00000
     23      25.9775      0.00000
     24      26.5759      0.00000

 k-point    11 :       0.4545    0.0909    0.0000
  band No.  band energies     occupation 
      1       2.0484      2.00000
      2       2.6735      2.00000
      3       3.0158      2.00000
      4       4.2992      2.00000
      5       5.8954      0.00000
      6       6.0020      0.00000
      7       6.9014      0.00000
      8      10.8649      0.00000
      9      11.0101      0.00000
     10      11.4322      0.00000
     11      12.2708      0.00000
     12      12.5296      0.00000
     13      13.5425      0.00000
     14      13.8938      0.00000
     15      16.2409      0.00000
     16      16.3353      0.00000
     17      16.7195      0.00000
     18      17.4928      0.00000
     19      17.5050      0.00000
     20      20.6208      0.00000
     21      21.2720      0.00000
     22      24.3276      0.00000
     23      27.3168      0.00000
     24      27.7500      0.00000

 k-point    12 :       0.1818    0.1818    0.0000
  band No.  band energies     occupation 
      1       0.4104      2.00000
      2       3.5296      2.00000
      3       3.7488      2.00000
      4       4.0682      2.00000
      5       5.8759      0.00000
      6       5.8763      0.00000
      7       6.7969      0.00000
      8       8.3869      0.00000
      9       9.1527      0.00000
     10      10.0449      0.00000
     11      11.1286      0.00000
     12      13.3939      0.00000
     13      14.7845      0.00000
     14      16.3348      0.00000
     15      16.4646      0.00000
     16      17.4926      0.00000
     17      17.4944      0.00000
     18      18.3735      0.00000
     19      20.4847      0.00000
     20      20.9762      0.00000
     21      22.9428      0.00000
     22      23.1692      0.00000
     23      24.2288      0.00000
     24      26.1551      0.00000

 k-point    13 :       0.2727    0.1818    0.0000
  band No.  band energies     occupation 
      1       1.5226      2.00000
      2       3.3319      2.00000
      3       3.4721      2.00000
      4       4.0270      2.00000
      5       5.6114      0.00000
      6       6.2753      0.00000
      7       6.3558      0.00000
      8       9.1023      0.00000
      9      10.1390      0.00000
     10      11.1299      0.00000
     11      11.3168      0.00000
     12      13.2156      0.00000
     13      14.4839      0.00000
     14      14.5659      0.00000
     15      16.1386      0.00000
     16      17.4877      0.00000
     17      17.4931      0.00000
     18      18.0485      0.00000
     19      19.1371      0.00000
     20      20.7200      0.00000
     21      21.6727      0.00000
     22      24.4265      0.00000
     23      25.2303      0.00000
     24      26.5616      0.00000

 k-point    14 :       0.3636    0.1818    0.0000
  band No.  band energies     occupation 
      1       2.3809      2.00000
      2       3.0994      2.00000
      3       3.1993      2.00000
      4       4.0455      2.00000
      5       5.6140      0.00000
      6       5.9562      0.00000
      7       6.9083      0.00000
      8      10.0076      0.00000
      9      10.6673      0.00000
     10      11.1234      0.00000
     11      12.0258      0.00000
     12      12.1990      0.00000
     13      13.0609      0.00000
     14      14.8193      0.00000
     15      17.1187      0.00000
     16      17.4176      0.00000
     17      17.4925      0.00000
     18      17.6368      0.00000
     19      17.7651      0.00000
     20      20.3272      0.00000
     21      20.6816      0.00000
     22      25.6036      0.00000
     23      25.6917      0.00000
     24      26.6818      0.00000

 k-point    15 :       0.2727    0.2727    0.0000
  band No.  band energies     occupation 
      1       2.5553      2.00000
      2       3.1592      2.00000
      3       3.6604      2.00000
      4       3.7710      2.00000
      5       5.4569      0.00082
      6       5.9531      0.00000
      7       6.8206      0.00000
      8       9.6491      0.00000
      9      10.3494      0.00000
     10      10.9809      0.00000
     11      11.9585      0.00000
     12      12.0462      0.00000
     13      12.9443      0.00000
     14      15.2817      0.00000
     15      17.4851      0.00000
     16      17.4925      0.00000
     17      17.5301      0.00000
     18      18.3810      0.00000
     19      18.6023      0.00000
     20      20.0403      0.00000
     21      20.1408      0.00000
     22      24.6824      0.00000
     23      25.9218      0.00000
     24      27.8784      0.00000

 k-point    16 :       0.3636    0.2727    0.0000
  band No.  band energies     occupation 
      1       3.0970      2.00000
      2       3.1007      2.00000
      3       3.5868      2.00000
      4       3.7493      2.00000
      5       5.5172      0.00003
      6       5.6817      0.00000
      7       7.1696      0.00000
      8      10.1735      0.00000
      9      10.4750      0.00000
     10      10.9239      0.00000
     11      11.0588      0.00000
     12      11.2436      0.00000
     13      13.0348      0.00000
     14      16.6180      0.00000
     15      17.4648      0.00000
     16      17.4924      0.00000
     17      17.8605      0.00000
     18      18.4133      0.00000
     19      18.6808      0.00000
     20      18.9491      0.00000
     21      19.7768      0.00000
     22      25.5002      0.00000
     23      25.5415      0.00000
     24      26.6100      0.00000

 k-point    17 :       0.0000    0.0000    0.0909
  band No.  band energies     occupation 
      1      -2.0669      2.00000
      2       1.4767      2.00000
      3       5.6894      0.00000
      4       6.3465      0.00000
      5       6.3466      0.00000
      6       6.5669      0.00000
      7       7.1327      0.00000
      8       7.1327      0.00000
      9       7.9758      0.00000
     10       7.9758      0.00000
     11      10.5385      0.00000
     12      10.5385      0.00000
     13      14.2775      0.00000
     14      16.0946      0.00000
     15      17.4882      0.00000
     16      17.4948      0.00000
     17      18.6795      0.00000
     18      19.3197      0.00000
     19      21.8284      0.00000
     20      21.8284      0.00000
     21      23.4634      0.00000
     22      24.2833      0.00000
     23      24.2833      0.00000
     24      25.6325      0.00000

 k-point    18 :       0.0909    0.0000    0.0909
  band No.  band energies     occupation 
      1      -1.8250      2.00000
      2       1.7205      2.00000
      3       5.3587      0.05020
      4       5.8311      0.00000
      5       6.5621      0.00000
      6       6.8238      0.00000
      7       6.9462      0.00000
      8       7.3294      0.00000
      9       7.7779      0.00000
     10       7.7926      0.00000
     11      10.7064      0.00000
     12      11.0642      0.00000
     13      14.3475      0.00000
     14      16.7222      0.00000
     15      17.4883      0.00000
     16      17.4955      0.00000
     17      19.0350      0.00000
     18      19.5097      0.00000
     19      21.0098      0.00000
     20      21.3857      0.00000
     21      22.1859      0.00000
     22      24.0333      0.00000
     23      25.4471      0.00000
     24      26.0375      0.00000

 k-point    19 :       0.1818    0.0000    0.0909
  band No.  band energies     occupation 
      1      -1.1393      2.00000
      2       2.3554      2.00000
      3       4.6300      2.00000
      4       5.1039      1.89998
[...]
      5       5.8497      0.00000
      6       5.9989      0.00000
      7       7.5323      0.00000
      8       8.0444      0.00000
      9      10.2943      0.00000
     10      10.4463      0.00000
     11      10.6627      0.00000
     12      10.8131      0.00000
     13      15.2566      0.00000
     14      15.9764      0.00000
     15      17.4925      0.00000
     16      17.4944      0.00000
     17      18.7808      0.00000
     18      19.2019      0.00000
     19      19.8644      0.00000
     20      20.7148      0.00000
     21      21.7527      0.00000
     22      22.6903      0.00000
     23      25.9478      0.00000
     24      26.2609      0.00000

 k-point    86 :       0.4545    0.0000    0.4545
  band No.  band energies     occupation 
      1       1.7195      2.00000
      2       1.9299      2.00000
      3       4.1304      2.00000
      4       4.3065      2.00000
      5       6.2089      0.00000
      6       6.3970      0.00000
      7       7.5448      0.00000
      8       8.1695      0.00000
      9      11.0100      0.00000
     10      11.1900      0.00000
     11      11.2136      0.00000
     12      11.2796      0.00000
     13      14.0627      0.00000
     14      14.3418      0.00000
     15      17.4878      0.00000
     16      17.4898      0.00000
     17      18.6526      0.00000
     18      18.7602      0.00000
     19      19.0025      0.00000
     20      19.5164      0.00000
     21      21.6340      0.00000
     22      22.2624      0.00000
     23      27.3441      0.00000
     24      27.6283      0.00000

 k-point    87 :       0.0909    0.0909    0.4545
  band No.  band energies     occupation 
      1       0.1356      2.00000
      2       0.7046      2.00000
      3       4.7393      2.00000
      4       5.0618      1.97490
      5       5.8647      0.00000
      6       6.0969      0.00000
      7       6.7444      0.00000
      8       6.8689      0.00000
      9       9.5174      0.00000
     10       9.8235      0.00000
     11      10.0238      0.00000
     12      10.3679      0.00000
     13      16.9869      0.00000
     14      17.2468      0.00000
     15      17.4972      0.00000
     16      17.5009      0.00000
     17      18.6471      0.00000
     18      19.2345      0.00000
     19      20.8639      0.00000
     20      21.0165      0.00000
     21      21.9624      0.00000
     22      22.0641      0.00000
     23      26.6051      0.00000
     24      26.9447      0.00000

 k-point    88 :       0.1818    0.0909    0.4545
  band No.  band energies     occupation 
      1       0.8166      2.00000
      2       1.3442      2.00000
      3       4.4233      2.00000
      4       4.7183      2.00000
      5       5.5758      0.00000
      6       5.8135      0.00000
      7       7.1898      0.00000
      8       7.3964      0.00000
      9       9.4992      0.00000
     10       9.8910      0.00000
     11      10.1420      0.00000
     12      10.6672      0.00000
     13      16.5427      0.00000
     14      17.3789      0.00000
     15      17.5001      0.00000
     16      17.5776      0.00000
     17      19.4745      0.00000
     18      19.6103      0.00000
     19      20.4914      0.00000
     20      20.6695      0.00000
     21      22.4699      0.00000
     22      22.5218      0.00000
     23      25.2450      0.00000
     24      25.7638      0.00000

 k-point    89 :       0.2727    0.0909    0.4545
  band No.  band energies     occupation 
      1       1.4849      2.00000
      2       1.8749      2.00000
      3       4.2623      2.00000
      4       4.5146      2.00000
      5       5.5008      0.00007
      6       5.6881      0.00000
      7       7.4004      0.00000
      8       7.8133      0.00000
      9      10.0129      0.00000
     10      10.1035      0.00000
     11      10.6687      0.00000
     12      10.9682      0.00000
     13      15.8153      0.00000
     14      16.6963      0.00000
     15      17.4959      0.00000
     16      17.5043      0.00000
     17      18.9347      0.00000
     18      19.3608      0.00000
     19      19.8433      0.00000
     20      20.2830      0.00000
     21      22.8835      0.00000
     22      23.3211      0.00000
     23      24.7758      0.00000
     24      25.5304      0.00000

 k-point    90 :       0.3636    0.0909    0.4545
  band No.  band energies     occupation 
      1       1.8353      2.00000
      2       2.0755      2.00000
      3       4.2037      2.00000
      4       4.4453      2.00000
      5       5.7111      0.00000
      6       5.8553      0.00000
      7       7.5541      0.00000
      8       8.0572      0.00000
      9      10.4300      0.00000
     10      10.8141      0.00000
     11      11.3937      0.00000
     12      11.5064      0.00000
     13      14.6367      0.00000
     14      15.1169      0.00000
     15      17.4903      0.00000
     16      17.4917      0.00000
     17      18.2440      0.00000
     18      18.8926      0.00000
     19      19.3006      0.00000
     20      19.4619      0.00000
     21      22.3133      0.00000
     22      23.1363      0.00000
     23      25.9351      0.00000
     24      26.6246      0.00000

 k-point    91 :       0.4545    0.0909    0.4545
  band No.  band energies     occupation 
      1       1.9076      2.00000
      2       2.1096      2.00000
      3       4.2028      2.00000
      4       4.4009      2.00000
      5       5.7669      0.00000
      6       6.0508      0.00000
      7       7.6975      0.00000
      8       8.2067      0.00000
      9      10.7792      0.00000
     10      10.9643      0.00000
     11      11.8454      0.00000
     12      12.0383      0.00000
     13      13.9157      0.00000
     14      14.0848      0.00000
     15      17.4851      0.00000
     16      17.4901      0.00000
     17      17.8444      0.00000
     18      18.7041      0.00000
     19      19.1342      0.00000
     20      19.2110      0.00000
     21      22.0550      0.00000
     22      22.5685      0.00000
     23      27.0543      0.00000
     24      27.3790      0.00000

 k-point    92 :       0.1818    0.1818    0.4545
  band No.  band energies     occupation 
      1       1.4986      2.00000
      2       1.9317      2.00000
      3       4.3445      2.00000
      4       4.4949      2.00000
      5       5.3457      0.07594
      6       5.5052      0.00006
      7       7.2371      0.00000
      8       7.6433      0.00000
      9       9.9993      0.00000
     10      10.0028      0.00000
     11      10.7598      0.00000
     12      11.1145      0.00000
     13      16.1299      0.00000
     14      16.9817      0.00000
     15      17.4994      0.00000
     16      17.5169      0.00000
     17      19.1096      0.00000
     18      19.2346      0.00000
     19      19.6796      0.00000
     20      19.8102      0.00000
     21      23.0685      0.00000
     22      23.6877      0.00000
     23      24.8603      0.00000
     24      25.4721      0.00000

 k-point    93 :       0.2727    0.1818    0.4545
  band No.  band energies     occupation 
      1       2.0973      2.00000
      2       2.3589      2.00000
      3       4.3073      2.00000
      4       4.5263      2.00000
      5       5.2357      0.82657
      6       5.2920      0.31021
      7       7.2075      0.00000
      8       7.7050      0.00000
      9      10.3779      0.00000
     10      10.9267      0.00000
     11      11.5234      0.00000
     12      11.6221      0.00000
     13      15.1831      0.00000
     14      15.7629      0.00000
     15      17.4952      0.00000
     16      17.4976      0.00000
     17      17.9179      0.00000
     18      18.3495      0.00000
     19      19.3775      0.00000
     20      19.5803      0.00000
     21      23.5056      0.00000
     22      24.3081      0.00000
     23      24.9440      0.00000
     24      25.8456      0.00000

 k-point    94 :       0.3636    0.1818    0.4545
  band No.  band energies     occupation 
      1       2.3632      2.00000
      2       2.5574      2.00000
      3       4.3233      2.00000
      4       4.6556      2.00000
      5       4.9883      1.99896
      6       5.2956      0.28639
      7       7.5475      0.00000
      8       7.9577      0.00000
      9      10.5501      0.00000
     10      10.8844      0.00000
     11      12.3779      0.00000
     12      12.4377      0.00000
     13      14.2641      0.00000
     14      14.5615      0.00000
     15      17.0990      0.00000
     16      17.4893      0.00000
     17      17.4967      0.00000
     18      17.8088      0.00000
     19      19.5391      0.00000
     20      19.7515      0.00000
     21      22.6305      0.00000
     22      23.4682      0.00000
     23      25.7843      0.00000
     24      26.4658      0.00000

 k-point    95 :       0.2727    0.2727    0.4545
  band No.  band energies     occupation 
      1       2.7479      2.00000
      2       2.8457      2.00000
      3       4.2024      2.00000
      4       4.4568      2.00000
      5       4.8710      2.00000
      6       5.1209      1.83971
      7       7.2885      0.00000
      8       7.7263      0.00000
      9      10.5015      0.00000
     10      10.8645      0.00000
     11      12.5680      0.00000
     12      12.6793      0.00000
     13      14.4336      0.00000
     14      14.8795      0.00000
     15      17.0046      0.00000
     16      17.1688      0.00000
     17      17.4959      0.00000
     18      17.4982      0.00000
     19      19.7969      0.00000
     20      20.1191      0.00000
     21      22.9766      0.00000
     22      23.8763      0.00000
     23      25.1228      0.00000
     24      25.9322      0.00000

 k-point    96 :       0.3636    0.2727    0.4545
  band No.  band energies     occupation 
      1       3.0587      2.00000
      2       3.1966      2.00000
      3       4.0736      2.00000
      4       4.0806      2.00000
      5       4.9786      1.99937
      6       4.9807      1.99930
      7       7.5255      0.00000
      8       7.9035      0.00000
      9      10.3298      0.00000
     10      10.4237      0.00000
     11      13.0999      0.00000
     12      13.3926      0.00000
     13      14.2199      0.00000
     14      14.6216      0.00000
     15      16.2795      0.00000
     16      16.7764      0.00000
     17      17.4955      0.00000
     18      17.4959      0.00000
     19      20.5971      0.00000
     20      20.6610      0.00000
     21      22.1871      0.00000
     22      22.9834      0.00000
     23      25.3068      0.00000
     24      25.6138      0.00000


--------------------------------------------------------------------------------------------------------


 soft charge-density along one line, spin component           1
         0         1         2         3         4         5         6         7         8         9
 total charge-density along one line
 
 pseudopotential strength for first ion, spin component:           1
 -5.309   0.000   0.000   0.000  -0.000  -6.638   0.000   0.000
  0.000  -5.319   0.000  -0.000  -0.000   0.000  -6.651   0.000
  0.000   0.000  -5.313  -0.000  -0.000   0.000   0.000  -6.643
  0.000  -0.000  -0.000  -5.319  -0.000   0.000  -0.000  -0.000
 -0.000  -0.000  -0.000  -0.000  -5.309  -0.000  -0.000  -0.000
 -6.638   0.000   0.000   0.000  -0.000  -8.281   0.000   0.000
  0.000  -6.651   0.000  -0.000  -0.000   0.000  -8.297   0.000
  0.000   0.000  -6.643  -0.000  -0.000   0.000   0.000  -8.287
  0.000  -0.000  -0.000  -6.651  -0.000   0.000  -0.000  -0.000
 -0.000  -0.000  -0.000  -0.000  -6.638  -0.000  -0.000  -0.000
  0.000  -0.000   0.003  -0.000  -0.000   0.000  -0.000   0.004
  0.000  -0.000   0.005  -0.000  -0.000   0.000  -0.000   0.006
  0.000   0.000  -0.000  -0.000   0.007   0.000   0.000  -0.000
 -0.000   0.000   0.000   0.000  -0.000  -0.000   0.000   0.000
  0.007  -0.000  -0.000   0.000   0.000   0.009  -0.000  -0.000
 -0.000  -0.000   0.000   0.000  -0.011  -0.000  -0.000   0.000
  0.000  -0.000  -0.000  -0.000   0.000   0.000  -0.000  -0.000
 -0.011   0.000   0.000  -0.000  -0.000  -0.014   0.000   0.000
 total augmentation occupancy for first ion, spin component:           1
  3.452   0.000   0.000   0.000   0.000  -1.728   0.000  -0.000   0.000  -0.000  -0.000   0.000  -0.000   0.000  -0.189   0.000
 -0.000   3.029   0.000   0.000  -0.000   0.000  -1.555   0.000   0.000   0.000  -0.000  -0.000   0.000   0.000   0.000   0.000
 -0.000   0.000   3.652   0.000  -0.000   0.000  -0.000  -1.817  -0.000   0.000   0.044   0.032   0.000   0.000   0.000   0.000
  0.000   0.000  -0.000   3.029  -0.000   0.000   0.000  -0.000  -1.555   0.000   0.000   0.000  -0.000  -0.000   0.000  -0.000
 -0.000   0.000  -0.000   0.000   3.452   0.000  -0.000   0.000  -0.000  -1.728  -0.000  -0.000  -0.189   0.000   0.000  -0.005
 -1.728   0.000   0.000  -0.000   0.000   0.875   0.000   0.000  -0.000   0.000   0.000  -0.000   0.000   0.000   0.084  -0.000
  0.000  -1.555  -0.000   0.000   0.000   0.000   0.806   0.000   0.000   0.000  -0.000   0.000   0.000   0.000  -0.000  -0.000
 -0.000   0.000  -1.817   0.000   0.000   0.000   0.000   0.915  -0.000  -0.000  -0.022  -0.015  -0.000   0.000   0.000  -0.000
  0.000   0.000   0.000  -1.555  -0.000   0.000   0.000  -0.000   0.806   0.000   0.000   0.000   0.000   0.000  -0.000   0.000
  0.000   0.000   0.000  -0.000  -1.728   0.000   0.000  -0.000   0.000   0.875   0.000   0.000   0.084   0.000  -0.000   0.002
  0.000   0.000   0.044  -0.000  -0.000   0.000   0.000  -0.022   0.000   0.000   2.318  -0.282  -0.000  -0.000  -0.000  -0.000
  0.000   0.000   0.032   0.000  -0.000  -0.000   0.000  -0.015   0.000   0.000  -0.282   0.037   0.000   0.000   0.000   0.000
  0.000   0.000   0.000   0.000  -0.189   0.000   0.000  -0.000  -0.000   0.084   0.000   0.000   0.286   0.000  -0.000   0.005
  0.000   0.000   0.000  -0.000   0.000   0.000  -0.000   0.000   0.000   0.000   0.000   0.000  -0.000   0.260   0.000  -0.000
 -0.189   0.000   0.000   0.000   0.000   0.084   0.000  -0.000  -0.000   0.000   0.000   0.000  -0.000  -0.000   0.286  -0.000
  0.000  -0.000   0.000  -0.000  -0.005  -0.000   0.000  -0.000   0.000   0.002   0.000  -0.000   0.005  -0.000  -0.000   0.000
  0.000   0.000  -0.000   0.000  -0.000   0.000   0.000  -0.000   0.000   0.000  -0.000   0.000   0.000   0.005   0.000   0.000
 -0.005   0.000   0.000  -0.000   0.000   0.002  -0.000   0.000   0.000  -0.000   0.000  -0.000  -0.000   0.000   0.005   0.000


------------------------ aborting loop because EDIFF is reached ----------------------------------------


    CHARGE:  cpu time      0.0075: real time      0.0075
    FORLOC:  cpu time      0.0001: real time      0.0010
    FORNL :  cpu time      0.0140: real time      0.0141
    STRESS:  cpu time      0.1888: real time      0.1906
    FORCOR:  cpu time      0.0015: real time      0.0015
    FORHAR:  cpu time      0.0003: real time      0.0003
    MIXING:  cpu time      0.0002: real time      0.0002
    OFIELD:  cpu time      0.0000: real time      0.0000

  FORCE on cell =-STRESS in cart. coord.  units (eV):
  Direction    XX          YY          ZZ          XY          YZ          ZX
  --------------------------------------------------------------------------------------
  Alpha Z    29.36900    29.36900    29.36900
  Ewald     -79.53504   -79.53511   -76.66845    -0.00000    -0.00000    -0.00000
  Hartree     0.04234     0.04233     0.24145    -0.00000     0.00000     0.00000
  E(xc)     -31.58672   -31.58672   -31.63363    -0.00000    -0.00000    -0.00000
  Local       1.75016     1.75021     0.07701    -0.00000    -0.00000    -0.00000
  n-local    -2.40353     7.59036     4.03592     4.21387    -0.38986     0.45948
  augment     2.74984     2.74984     2.51828    -0.00000     0.00000    -0.00000
  Kinetic    77.80087    70.97519    71.66081    -3.67983    -0.22345    -0.28578
  Fock        0.00000     0.00000     0.00000     0.00000     0.00000     0.00000
  -------------------------------------------------------------------------------------
  Total      -0.22900    -0.22900    -0.39962    -0.00000     0.00000    -0.00000
  in kB      -8.15968    -8.15967   -14.23926    -0.00000     0.00000    -0.00000
  external pressure =      -10.19 kB  Pullay stress =        0.00 kB


 VOLUME and BASIS-vectors are now :
 -----------------------------------------------------------------------------
  energy-cutoff  :      500.00
  volume of cell :       44.96
      direct lattice vectors                 reciprocal lattice vectors
     1.599243000 -2.769970000  0.000000000     0.312647922 -0.180507370  0.000000000
     1.599243000  2.769970000  0.000000000     0.312647922  0.180507370  0.000000000
     0.000000000  0.000000000  5.075185000     0.000000000  0.000000000  0.197037152

  length of vectors
     3.198485888  3.198485888  5.075185000     0.361014728  0.361014728  0.197037152


 FORCES acting on ions
    electron-ion (+dipol)            ewald-force                    non-local-force                 convergence-correction
 -----------------------------------------------------------------------------------------------
   0.131E-06 -.855E-05 -.343E-05   0.605E-17 0.120E-04 -.281E-14   0.105E-15 -.919E-16 0.642E-17   0.133E-11 -.173E-07 0.592E-09
   0.131E-06 0.257E-05 -.343E-05   0.956E-15 -.120E-04 0.282E-14   -.563E-16 0.148E-16 -.741E-17   0.133E-11 0.167E-07 0.592E-09
 -----------------------------------------------------------------------------------------------
   0.261E-06 -.598E-05 -.687E-05   0.962E-15 0.260E-15 0.402E-17   0.483E-16 -.770E-16 -.990E-18   0.266E-11 -.646E-09 0.118E-08
 
 
 POSITION                                       TOTAL-FORCE (eV/Angst)
 -----------------------------------------------------------------------------------
      1.59924     -0.92333      1.26880        -0.000000     -0.000000      0.000000
      1.59924      0.92333      3.80639         0.000000      0.000000     -0.000000
 -----------------------------------------------------------------------------------
    total drift:                                0.000000     -0.000006     -0.000007


--------------------------------------------------------------------------------------------------------



  FREE ENERGIE OF THE ION-ELECTRON SYSTEM (eV)
  ---------------------------------------------------
  free  energy   TOTEN  =       -19.91705472 eV

  energy  without entropy=      -19.90951879  energy(sigma->0) =      -19.91328676
 


--------------------------------------------------------------------------------------------------------


    POTLOK:  cpu time      0.0028: real time      0.0028


--------------------------------------------------------------------------------------------------------


 writing wavefunctions
     LOOP+:  cpu time      4.1506: real time      4.2390
    4ORBIT:  cpu time      0.0000: real time      0.0000

 total amount of memory used by VASP MPI-rank0    48943. kBytes
=======================================================================

   base      :      30000. kBytes
   nonl-proj :      16294. kBytes
   fftplans  :        172. kBytes
   grid      :        566. kBytes
   one-center:         31. kBytes
   wavefun   :       1880. kBytes
 
  
  
 General timing and accounting informations for this job:
 ========================================================
  
                  Total CPU time used (sec):        4.688
                            User time (sec):        4.423
                          System time (sec):        0.265
                         Elapsed time (sec):        5.602
  
                   Maximum memory used (kb):      247464.
                   Average memory used (kb):          N/A
  
                          Minor page faults:        20635
                          Major page faults:         1704
                 Voluntary context switches:         2445
