<?xml version="1.0" encoding="ISO-8859-1"?>
<modeling>
 <generator>
  <i name="program" type="string">vasp </i>
  <i name="version" type="string">6.3.0  </i>
  <i name="subversion" type="string">20Jan22 (build Feb 10 2022 15:15:41) complex                          parallel </i>
  <i name="platform" type="string">LinuxIFC </i>
  <i name="date" type="string">2023 08 22 </i>
  <i name="time" type="string">12:52:34 </i>
 </generator>
 <incar>
  <i name="ENCUT">    500.00000000</i>
  <i type="int" name="ISMEAR">     0</i>
  <i name="SIGMA">      0.10000000</i>
 </incar>
 <primitive_cell>
  <structure name="primitive_cell" >
   <crystal>
    <varray name="basis" >
     <v>       1.59924300      -2.76997000       0.00000000 </v>
     <v>       1.59924300       2.76997000       0.00000000 </v>
     <v>       0.00000000       0.00000000       5.07518500 </v>
    </varray>
    <i name="volume">     44.96466864 </i>
    <varray name="rec_basis" >
     <v>       0.31264792      -0.18050737       0.00000000 </v>
     <v>       0.31264792       0.18050737       0.00000000 </v>
     <v>       0.00000000       0.00000000       0.19703715 </v>
    </varray>
   </crystal>
   <varray name="positions" >
    <v>       0.66666700       0.33333300       0.25000000 </v>
    <v>       0.33333300       0.66666700       0.75000000 </v>
   </varray>
  </structure>
  <varray name="primitive_index" >
   <v type="int" >        1 </v>
   <v type="int" >        2 </v>
  </varray>
 </primitive_cell>
 <kpoints>
  <generation param="Gamma">
   <v type="int" name="divisions">      11       11       11 </v>
   <v name="usershift">      0.00000000       0.00000000       0.00000000 </v>
   <v name="genvec1">      0.09090909      -0.00000000       0.00000000 </v>
   <v name="genvec2">     -0.00000000       0.09090909       0.00000000 </v>
   <v name="genvec3">      0.00000000       0.00000000       0.09090909 </v>
   <v name="shift">      0.00000000       0.00000000       0.00000000 </v>
  </generation>
  <varray name="kpointlist" >
   <v>       0.00000000       0.00000000       0.00000000 </v>
   <v>       0.09090909       0.00000000       0.00000000 </v>
   <v>       0.18181818       0.00000000       0.00000000 </v>
   <v>       0.27272727       0.00000000       0.00000000 </v>
   <v>       0.36363636       0.00000000       0.00000000 </v>
   <v>       0.45454545       0.00000000       0.00000000 </v>
   <v>       0.09090909       0.09090909       0.00000000 </v>
   <v>       0.18181818       0.09090909       0.00000000 </v>
   <v>       0.27272727       0.09090909       0.00000000 </v>
   <v>       0.36363636       0.09090909       0.00000000 </v>
   <v>       0.45454545       0.09090909       0.00000000 </v>
   <v>       0.18181818       0.18181818       0.00000000 </v>
   <v>       0.27272727       0.18181818       0.00000000 </v>
   <v>       0.36363636       0.18181818       0.00000000 </v>
   <v>       0.27272727       0.27272727       0.00000000 </v>
   <v>       0.36363636       0.27272727       0.00000000 </v>
   <v>       0.00000000       0.00000000       0.09090909 </v>
   <v>       0.09090909       0.00000000       0.09090909 </v>
   <v>       0.18181818       0.00000000       0.09090909 </v>
   <v>       0.27272727       0.00000000       0.09090909 </v>
   <v>       0.36363636       0.00000000       0.09090909 </v>
   <v>       0.45454545       0.00000000       0.09090909 </v>
   <v>       0.09090909       0.09090909       0.09090909 </v>
   <v>       0.18181818       0.09090909       0.09090909 </v>
   <v>       0.27272727       0.09090909       0.09090909 </v>
   <v>       0.36363636       0.09090909       0.09090909 </v>
   <v>       0.45454545       0.09090909       0.09090909 </v>
   <v>       0.18181818       0.18181818       0.09090909 </v>
   <v>       0.27272727       0.18181818       0.09090909 </v>
   <v>       0.36363636       0.18181818       0.09090909 </v>
   <v>       0.27272727       0.27272727       0.09090909 </v>
   <v>       0.36363636       0.27272727       0.09090909 </v>
   <v>       0.00000000       0.00000000       0.18181818 </v>
   <v>       0.09090909       0.00000000       0.18181818 </v>
   <v>       0.18181818       0.00000000       0.18181818 </v>
   <v>       0.27272727       0.00000000       0.18181818 </v>
   <v>       0.36363636       0.00000000       0.18181818 </v>
   <v>       0.45454545       0.00000000       0.18181818 </v>
   <v>       0.09090909       0.09090909       0.18181818 </v>
   <v>       0.18181818       0.09090909       0.18181818 </v>
   <v>       0.27272727       0.09090909       0.18181818 </v>
   <v>       0.36363636       0.09090909       0.18181818 </v>
   <v>       0.45454545       0.09090909       0.18181818 </v>
   <v>       0.18181818       0.18181818       0.18181818 </v>
   <v>       0.27272727       0.18181818       0.18181818 </v>
   <v>       0.36363636       0.18181818       0.18181818 </v>
   <v>       0.27272727       0.27272727       0.18181818 </v>
   <v>       0.36363636       0.27272727       0.18181818 </v>
   <v>       0.00000000       0.00000000       0.27272727 </v>
   <v>       0.09090909       0.00000000       0.27272727 </v>
   <v>       0.18181818       0.00000000       0.27272727 </v>
   <v>       0.27272727       0.00000000       0.27272727 </v>
   <v>       0.36363636       0.00000000       0.27272727 </v>
   <v>       0.45454545       0.00000000       0.27272727 </v>
   <v>       0.09090909       0.09090909       0.27272727 </v>
   <v>       0.18181818       0.09090909       0.27272727 </v>
   <v>       0.27272727       0.09090909       0.27272727 </v>
   <v>       0.36363636       0.09090909       0.27272727 </v>
   <v>       0.45454545       0.09090909       0.27272727 </v>
   <v>       0.18181818       0.18181818       0.27272727 </v>
   <v>       0.27272727       0.18181818       0.27272727 </v>
   <v>       0.36363636       0.18181818       0.27272727 </v>
   <v>       0.27272727       0.27272727       0.27272727 </v>
   <v>       0.36363636       0.27272727       0.27272727 </v>
   <v>       0.00000000       0.00000000       0.36363636 </v>
   <v>       0.09090909       0.00000000       0.36363636 </v>
   <v>       0.18181818       0.00000000       0.36363636 </v>
   <v>       0.27272727       0.00000000       0.36363636 </v>
   <v>       0.36363636       0.00000000       0.36363636 </v>
   <v>       0.45454545       0.00000000       0.36363636 </v>
   <v>       0.09090909       0.09090909       0.36363636 </v>
   <v>       0.18181818       0.09090909       0.36363636 </v>
   <v>       0.27272727       0.09090909       0.36363636 </v>
   <v>       0.36363636       0.09090909       0.36363636 </v>
   <v>       0.45454545       0.09090909       0.36363636 </v>
   <v>       0.18181818       0.18181818       0.36363636 </v>
   <v>       0.27272727       0.18181818       0.36363636 </v>
   <v>       0.36363636       0.18181818       0.36363636 </v>
   <v>       0.27272727       0.27272727       0.36363636 </v>
   <v>       0.36363636       0.27272727       0.36363636 </v>
   <v>       0.00000000       0.00000000       0.45454545 </v>
   <v>       0.09090909       0.00000000       0.45454545 </v>
   <v>       0.18181818       0.00000000       0.45454545 </v>
   <v>       0.27272727       0.00000000       0.45454545 </v>
   <v>       0.36363636       0.00000000       0.45454545 </v>
   <v>       0.45454545       0.00000000       0.45454545 </v>
   <v>       0.09090909       0.09090909       0.45454545 </v>
   <v>       0.18181818       0.09090909       0.45454545 </v>
   <v>       0.27272727       0.09090909       0.45454545 </v>
   <v>       0.36363636       0.09090909       0.45454545 </v>
   <v>       0.45454545       0.09090909       0.45454545 </v>
   <v>       0.18181818       0.18181818       0.45454545 </v>
   <v>       0.27272727       0.18181818       0.45454545 </v>
   <v>       0.36363636       0.18181818       0.45454545 </v>
   <v>       0.27272727       0.27272727       0.45454545 </v>
   <v>       0.36363636       0.27272727       0.45454545 </v>
  </varray>
  <varray name="weights" >
   <v>       0.00075131 </v>
   <v>       0.00450789 </v>
   <v>       0.00450789 </v>
   <v>       0.00450789 </v>
   <v>       0.00450789 </v>
   <v>       0.00450789 </v>
   <v>       0.00450789 </v>
   <v>       0.00901578 </v>
   <v>       0.00901578 </v>
   <v>       0.00901578 </v>
   <v>       0.00450789 </v>
   <v>       0.00450789 </v>
   <v>       0.00901578 </v>
   <v>       0.00901578 </v>
   <v>       0.00450789 </v>
   <v>       0.00450789 </v>
   <v>       0.00150263 </v>
   <v>       0.00901578 </v>
   <v>       0.00901578 </v>
   <v>       0.00901578 </v>
   <v>       0.00901578 </v>
   <v>       0.00901578 </v>
   <v>       0.00901578 </v>
   <v>       0.01803156 </v>
   <v>       0.01803156 </v>
   <v>       0.01803156 </v>
   <v>       0.00901578 </v>
   <v>       0.00901578 </v>
   <v>       0.01803156 </v>
   <v>       0.01803156 </v>
   <v>       0.00901578 </v>
   <v>       0.00901578 </v>
   <v>       0.00150263 </v>
   <v>       0.00901578 </v>
   <v>       0.00901578 </v>
   <v>       0.00901578 </v>
   <v>       0.00901578 </v>
   <v>       0.00901578 </v>
   <v>       0.00901578 </v>
   <v>       0.01803156 </v>
   <v>       0.01803156 </v>
   <v>       0.01803156 </v>
   <v>       0.00901578 </v>
   <v>       0.00901578 </v>
   <v>       0.01803156 </v>
   <v>       0.01803156 </v>
   <v>       0.00901578 </v>
   <v>       0.00901578 </v>
   <v>       0.00150263 </v>
   <v>       0.00901578 </v>
   <v>       0.00901578 </v>
   <v>       0.00901578 </v>
   <v>       0.00901578 </v>
   <v>       0.00901578 </v>
   <v>       0.00901578 </v>
   <v>       0.01803156 </v>
   <v>       0.01803156 </v>
   <v>       0.01803156 </v>
   <v>       0.00901578 </v>
   <v>       0.00901578 </v>
   <v>       0.01803156 </v>
   <v>       0.01803156 </v>
   <v>       0.00901578 </v>
   <v>       0.00901578 </v>
   <v>       0.00150263 </v>
   <v>       0.00901578 </v>
   <v>       0.00901578 </v>
   <v>       0.00901578 </v>
   <v>       0.00901578 </v>
   <v>       0.00901578 </v>
   <v>       0.00901578 </v>
   <v>       0.01803156 </v>
   <v>       0.01803156 </v>
   <v>       0.01803156 </v>
   <v>       0.00901578 </v>
   <v>       0.00901578 </v>
   <v>       0.01803156 </v>
   <v>       0.01803156 </v>
   <v>       0.00901578 </v>
   <v>       0.00901578 </v>
   <v>       0.00150263 </v>
   <v>       0.00901578 </v>
   <v>       0.00901578 </v>
   <v>       0.00901578 </v>
   <v>       0.00901578 </v>
   <v>       0.00901578 </v>
   <v>       0.00901578 </v>
   <v>       0.01803156 </v>
   <v>       0.01803156 </v>
   <v>       0.01803156 </v>
   <v>       0.00901578 </v>
   <v>       0.00901578 </v>
   <v>       0.01803156 </v>
   <v>       0.01803156 </v>
   <v>       0.00901578 </v>
   <v>       0.00901578 </v>
  </varray>
 </kpoints>
 <parameters>
  <separator name="general" >
   <i type="string" name="SYSTEM">unknown system</i>
   <i type="logical" name="LCOMPAT"> F  </i>
  </separator>
  <separator name="electronic" >
   <i type="string" name="PREC">normal</i>
   <i name="ENMAX">    500.00000000</i>
   <i name="ENAUG">    335.11600000</i>
   <i name="EDIFF">      0.00010000</i>
   <i type="int" name="IALGO">    38</i>
   <i type="int" name="IWAVPR">    10</i>
   <i type="int" name="NBANDS">    24</i>
   <i type="int" name="NBANDSLOW">    -1</i>
   <i type="int" name="NBANDSHIGH">    -1</i>
   <i name="NELECT">      8.00000000</i>
   <i type="int" name="TURBO">     0</i>
   <i type="int" name="IRESTART">     0</i>
   <i type="int" name="NREBOOT">     0</i>
   <i type="int" name="NMIN">     0</i>
   <i name="EREF">      0.00000000</i>
   <separator name="electronic smearing" >
    <i type="int" name="ISMEAR">     0</i>
    <i name="SIGMA">      0.10000000</i>
    <i name="KSPACING">      0.50000000</i>
    <i type="logical" name="KGAMMA"> T  </i>
    <i type="logical" name="KBLOWUP"> T  </i>
   </separator>
   <separator name="electronic projectors" >
    <i type="logical" name="LREAL"> F  </i>
    <v name="ROPT">      0.00000000</v>
    <i type="int" name="LMAXPAW">  -100</i>
    <i type="int" name="LMAXMIX">     2</i>
    <i type="logical" name="NLSPLINE"> F  </i>
   </separator>
   <separator name="electronic startup" >
    <i type="int" name="ISTART">     0</i>
    <i type="int" name="ICHARG">     2</i>
    <i type="int" name="INIWAV">     1</i>
   </separator>
   <separator name="electronic spin" >
    <i type="int" name="ISPIN">     1</i>
    <i type="logical" name="LNONCOLLINEAR"> F  </i>
    <v name="MAGMOM">      1.00000000      1.00000000</v>
    <i name="NUPDOWN">     -1.00000000</i>
    <i type="logical" name="LSORBIT"> F  </i>
    <v name="SAXIS">      0.00000000      0.00000000      1.00000000</v>
    <i type="logical" name="LSPIRAL"> F  </i>
    <v name="QSPIRAL">      0.00000000      0.00000000      0.00000000</v>
    <i type="logical" name="LZEROZ"> F  </i>
   </separator>
   <separator name="electronic exchange-correlation" >
    <i type="logical" name="LASPH"> F  </i>
    <i type="logical" name="LMETAGGA"> F  </i>
   </separator>
   <separator name="electronic convergence" >
    <i type="int" name="NELM">    60</i>
    <i type="int" name="NELMDL">    -5</i>
    <i type="int" name="NELMIN">     2</i>
    <i name="ENINI">    500.00000000</i>
    <separator name="electronic convergence detail" >
     <i type="logical" name="LDIAG"> T  </i>
     <i type="logical" name="LSUBROT"> F  </i>
     <i name="WEIMIN">      0.00000000</i>
     <i name="EBREAK">      0.00000104</i>
     <i name="DEPER">      0.30000000</i>
     <i type="int" name="NRMM">     4</i>
     <i name="TIME">      0.40000000</i>
    </separator>
   </separator>
   <separator name="electronic mixer" >
    <i name="AMIX">      0.40000000</i>
    <i name="BMIX">      1.00000000</i>
    <i name="AMIN">      0.10000000</i>
    <i name="AMIX_MAG">      1.60000000</i>
    <i name="BMIX_MAG">      1.00000000</i>
    <separator name="electronic mixer details" >
     <i type="int" name="IMIX">     4</i>
     <i type="logical" name="MIXFIRST"> F  </i>
     <i type="int" name="MAXMIX">   -45</i>
     <i name="WC">    100.00000000</i>
     <i type="int" name="INIMIX">     1</i>
     <i type="int" name="MIXPRE">     1</i>
     <i type="int" name="MREMOVE">     5</i>
    </separator>
   </separator>
   <separator name="electronic dipolcorrection" >
    <i type="logical" name="LDIPOL"> F  </i>
    <i type="logical" name="LMONO"> F  </i>
    <i type="int" name="IDIPOL">     0</i>
    <i name="EPSILON">      1.00000000</i>
    <v name="DIPOL">   -100.00000000   -100.00000000   -100.00000000</v>
    <i name="EFIELD">      0.00000000</i>
   </separator>
  </separator>
  <separator name="grids" >
   <i type="int" name="NGX">    18</i>
   <i type="int" name="NGY">    18</i>
   <i type="int" name="NGZ">    28</i>
   <i type="int" name="NGXF">    36</i>
   <i type="int" name="NGYF">    36</i>
   <i type="int" name="NGZF">    56</i>
   <i type="logical" name="ADDGRID"> F  </i>
  </separator>
  <separator name="ionic" >
   <i type="int" name="NSW">     0</i>
   <i type="int" name="IBRION">    -1</i>
   <i type="int" name="MDALGO">     0</i>
   <i type="int" name="ISIF">     2</i>
   <i name="PSTRESS">      0.00000000</i>
   <i name="EDIFFG">      0.00100000</i>
   <i type="int" name="NFREE">     0</i>
   <i name="POTIM">      0.50000000</i>
   <i name="SMASS">     -3.00000000</i>
   <i name="SCALEE">      1.00000000</i>
  </separator>
  <separator name="ionic md" >
   <i name="TEBEG">      0.00010000</i>
   <i name="TEEND">      0.00010000</i>
   <i type="int" name="NBLOCK">     1</i>
   <i type="int" name="KBLOCK">     1</i>
   <i type="int" name="NPACO">   256</i>
   <i name="APACO">     10.00000000</i>
  </separator>
  <separator name="symmetry" >
   <i type="int" name="ISYM">     2</i>
   <i name="SYMPREC">      0.00001000</i>
  </separator>
  <separator name="dos" >
   <i type="int" name="LORBIT">     0</i>
   <v name="RWIGS">     -1.00000000</v>
   <i type="int" name="NEDOS">   301</i>
   <i name="EMIN">     10.00000000</i>
   <i name="EMAX">    -10.00000000</i>
   <i name="EFERMI">      0.00000000</i>
  </separator>
  <separator name="writing" >
   <i type="int" name="NWRITE">     2</i>
   <i type="logical" name="LWAVE"> T  </i>
   <i type="logical" name="LDOWNSAMPLE"> F  </i>
   <i type="logical" name="LCHARG"> T  </i>
   <i type="logical" name="LPARD"> F  </i>
   <i type="logical" name="LVTOT"> F  </i>
   <i type="logical" name="LVHAR"> F  </i>
   <i type="logical" name="LELF"> F  </i>
   <i type="logical" name="LOPTICS"> F  </i>
   <v name="STM">      0.00000000      0.00000000      0.00000000      0.00000000      0.00000000      0.00000000      0.00000000</v>
  </separator>
  <separator name="performance" >
   <i type="int" name="NPAR">    24</i>
   <i type="int" name="NSIM">     4</i>
   <i type="int" name="NBLK">    -1</i>
   <i type="logical" name="LPLANE"> T  </i>
   <i type="logical" name="LSCALAPACK"> T  </i>
   <i type="logical" name="LSCAAWARE"> F  </i>
   <i type="logical" name="LSCALU"> F  </i>
   <i type="logical" name="LASYNC"> F  </i>
   <i type="logical" name="LORBITALREAL"> F  </i>
  </separator>
  <separator name="miscellaneous" >
   <i type="int" name="IDIOT">     3</i>
   <i type="int" name="PHON_NSTRUCT">    -1</i>
   <i type="logical" name="LMUSIC"> F  </i>
   <v name="POMASS">    178.49000000</v>
   <v name="DARWINR">      0.00000000</v>
   <v name="DARWINV">      1.00000000</v>
   <i type="logical" name="LCORR"> T  </i>
  </separator>
  <i type="logical" name="GGA_COMPAT"> T  </i>
  <i type="logical" name="LBERRY"> F  </i>
  <i type="int" name="ICORELEVEL">     0</i>
  <i type="logical" name="LDAU"> F  </i>
  <i type="int" name="I_CONSTRAINED_M">     0</i>
  <separator name="electronic exchange-correlation" >
   <i type="string" name="GGA">--</i>
   <i type="int" name="VOSKOWN">     0</i>
   <i type="logical" name="LHFCALC"> F  </i>
   <i type="string" name="PRECFOCK"></i>
   <i type="logical" name="LSYMGRAD"> F  </i>
   <i type="logical" name="LHFONE"> F  </i>
   <i type="logical" name="LRHFCALC"> F  </i>
   <i type="logical" name="LTHOMAS"> F  </i>
   <i type="logical" name="LMODELHF"> F  </i>
   <i type="logical" name="LFOCKACE"> F  </i>
   <i name="ENCUT4O">     -1.00000000</i>
   <i type="int" name="EXXOEP">     0</i>
   <i type="int" name="FOURORBIT">     0</i>
   <i name="AEXX">      0.00000000</i>
   <i name="HFALPHA">      0.00000000</i>
   <i name="MCALPHA">      0.00000000</i>
   <i name="ALDAX">      1.00000000</i>
   <i name="AGGAX">      1.00000000</i>
   <i name="ALDAC">      1.00000000</i>
   <i name="AGGAC">      1.00000000</i>
   <i type="int" name="NKREDX">     1</i>
   <i type="int" name="NKREDY">     1</i>
   <i type="int" name="NKREDZ">     1</i>
   <i type="logical" name="SHIFTRED"> F  </i>
   <i type="logical" name="ODDONLY"> F  </i>
   <i type="logical" name="EVENONLY"> F  </i>
   <i type="int" name="LMAXFOCK">     0</i>
   <i type="int" name="NMAXFOCKAE">     0</i>
   <i type="logical" name="LFOCKAEDFT"> F  </i>
   <i name="HFSCREEN">      0.00000000</i>
   <i name="HFSCREENC">      0.00000000</i>
   <i type="int" name="NBANDSGWLOW">     0</i>
  </separator>
  <separator name="vdW DFT" >
   <i type="logical" name="LUSE_VDW"> F  </i>
   <i name="Zab_VDW">     -0.84910000</i>
   <i name="PARAM1">      0.12340000</i>
   <i name="PARAM2">      1.00000000</i>
   <i name="PARAM3">      0.00000000</i>
  </separator>
  <separator name="model GW" >
   <i type="int" name="MODEL_GW">     0</i>
   <i name="MODEL_EPS0">     13.48940059</i>
   <i name="MODEL_ALPHA">      1.00000000</i>
  </separator>
  <separator name="linear response parameters" >
   <i type="logical" name="LEPSILON"> F  </i>
   <i type="logical" name="LRPA"> F  </i>
   <i type="logical" name="LNABLA"> F  </i>
   <i type="logical" name="LVEL"> F  </i>
   <i name="CSHIFT">      0.10000000</i>
   <i name="OMEGAMAX">     -1.00000000</i>
   <i name="DEG_THRESHOLD">      0.00200000</i>
   <i name="RTIME">     -0.10000000</i>
   <i name="WPLASMAI">      0.00000000</i>
   <v name="DFIELD">      0.00000000      0.00000000      0.00000000</v>
   <v name="WPLASMA">      0.00000000      0.00000000      0.00000000      0.00000000      0.00000000      0.00000000      0.00000000      0.00000000      0.00000000</v>
  </separator>
  <separator name="orbital magnetization" >
   <i type="logical" name="NUCIND"> F  </i>
   <v name="MAGPOS">      0.00000000      0.00000000      0.00000000</v>
   <i type="logical" name="LNICSALL"> T  </i>
   <i type="logical" name="ORBITALMAG"> F  </i>
   <i type="logical" name="LMAGBLOCH"> F  </i>
   <i type="logical" name="LCHIMAG"> F  </i>
   <i type="logical" name="LGAUGE"> T  </i>
   <i type="int" name="MAGATOM">     0</i>
   <v name="MAGDIPOL">      0.00000000      0.00000000      0.00000000</v>
   <v name="AVECCONST">      0.00000000      0.00000000      0.00000000</v>
  </separator>
  <separator name="response functions" >
   <i type="logical" name="LFINITE_TEMPERATURE"> F  </i>
   <i type="logical" name="LADDER"> F  </i>
   <i type="logical" name="LRPAFORCE"> F  </i>
   <i type="logical" name="LFXC"> F  </i>
   <i type="logical" name="LHARTREE"> T  </i>
   <i type="int" name="IBSE">     0</i>
   <v type="int" name="KPOINT">    -1     0     0     0</v>
   <i type="logical" name="LTCTC"> F  </i>
   <i type="logical" name="LTCTE"> F  </i>
   <i type="logical" name="LTETE"> F  </i>
   <i type="logical" name="LTRIPLET"> F  </i>
   <i type="logical" name="LFXCEPS"> F  </i>
   <i type="logical" name="LFXHEG"> F  </i>
   <i type="int" name="NATURALO">     2</i>
   <i type="logical" name="LHOLEGF"> F  </i>
   <i type="logical" name="L2ORDER"> F  </i>
   <i type="logical" name="LDMP1"> F  </i>
   <i type="logical" name="LMP2LT"> F  </i>
   <i type="logical" name="LSMP2LT"> F  </i>
   <i type="logical" name="LGWLF"> F  </i>
   <i name="ENCUTGW">     -2.00000000</i>
   <i name="ENCUTGWSOFT">     -2.00000000</i>
   <i name="ENCUTLF">     -1.00000000</i>
   <i type="logical" name="LESF_SPLINES"> F  </i>
   <i type="int" name="LMAXMP2">    -1</i>
   <i name="SCISSOR">      0.00000000</i>
   <i type="int" name="NOMEGA">     0</i>
   <i type="int" name="NOMEGAR">     0</i>
   <i type="int" name="NBANDSGW">    -1</i>
   <i type="int" name="NBANDSO">    -1</i>
   <i type="int" name="NBANDSV">    -1</i>
   <i type="int" name="NELMGW">     1</i>
   <i type="int" name="NELMHF">     1</i>
   <i type="int" name="DIM">     3</i>
   <i type="int" name="IESPILON">     4</i>
   <i type="int" name="ANTIRES">     0</i>
   <i name="OMEGAMAX">    -30.00000000</i>
   <i name="OMEGAMIN">    -30.00000000</i>
   <i name="OMEGATL">   -200.00000000</i>
   <i type="int" name="OMEGAGRID">     0</i>
   <i name="CSHIFT">     -0.10000000</i>
   <i type="logical" name="LSELFENERGY"> F  </i>
   <i type="logical" name="LSPECTRAL"> F  </i>
   <i type="logical" name="LSPECTRALGW"> F  </i>
   <i type="logical" name="LSINGLES"> F  </i>
   <i type="logical" name="LFERMIGW"> F  </i>
   <i type="logical" name="ODDONLYGW"> F  </i>
   <i type="logical" name="EVENONLYGW"> F  </i>
   <i type="int" name="NKREDLFX">     1</i>
   <i type="int" name="NKREDLFY">     1</i>
   <i type="int" name="NKREDLFZ">     1</i>
   <i type="int" name="MAXMEM">  2800</i>
   <i type="int" name="TELESCOPE">     0</i>
   <i type="int" name="NTAUPAR">    -1</i>
   <i type="int" name="NOMEGAPAR">    -1</i>
   <i name="DAMP_NEWTON">      0.80000001</i>
   <i name="LAMBDA">      1.00000000</i>
  </separator>
  <separator name="External order field" >
   <i name="OFIELD_KAPPA">      0.00000000</i>
   <v name="OFIELD_K">      0.00000000      0.00000000      0.00000000</v>
   <i name="OFIELD_Q6_NEAR">      0.00000000</i>
   <i name="OFIELD_Q6_FAR">      0.00000000</i>
   <i name="OFIELD_A">      0.00000000</i>
  </separator>
  <separator name="optional k-points parameters" >
   <i type="int" name="KPOINTS_OPT_MODE">     1</i>
   <i type="logical" name="LKPOINTS_OPT"> F  </i>
  </separator>
 </parameters>
 <atominfo>
  <atoms>       2 </atoms>
  <types>       1 </types>
  <array name="atoms" >
   <dimension dim="1">ion</dimension>
   <field type="string">element</field>
   <field type="int">atomtype</field>
   <set>
    <rc><c>Hf</c><c>   1</c></rc>
    <rc><c>Hf</c><c>   1</c></rc>
   </set>
  </array>
  <array name="atomtypes" >
   <dimension dim="1">type</dimension>
   <field type="int">atomspertype</field>
   <field type="string">element</field>
   <field>mass</field>
   <field>valence</field>
   <field type="string">pseudopotential</field>
   <set>
    <rc><c>   2</c><c>Hf</c><c>    178.49000000</c><c>      4.00000000</c><c>  PAW_PBE Hf 20Jan2003                  </c></rc>
   </set>
  </array>
 </atominfo>
 <structure name="initialpos" >
  <crystal>
   <varray name="basis" >
    <v>       1.59924300      -2.76997000       0.00000000 </v>
    <v>       1.59924300       2.76997000       0.00000000 </v>
    <v>       0.00000000       0.00000000       5.07518500 </v>
   </varray>
   <i name="volume">     44.96466864 </i>
   <varray name="rec_basis" >
    <v>       0.31264792      -0.18050737       0.00000000 </v>
    <v>       0.31264792       0.18050737       0.00000000 </v>
    <v>       0.00000000       0.00000000       0.19703715 </v>
   </varray>
  </crystal>
  <varray name="positions" >
   <v>       0.66666700       0.33333300       0.25000000 </v>
   <v>       0.33333300       0.66666700       0.75000000 </v>
  </varray>
 </structure>
 <calculation>
  <scstep>
   <time name="dav">    0.28    0.29</time>
   <time name="total">    0.29    0.31</time>
   <energy>
    <i name="alphaZ">     29.36899766 </i>
    <i name="ewald">   -235.73844108 </i>
    <i name="hartreedc">     -2.11251009 </i>
    <i name="XCdc">   -106.42030778 </i>
    <i name="pawpsdc">    247.12372627 </i>
    <i name="pawaedc">   -130.28340561 </i>
    <i name="eentropy">     -0.00819404 </i>
    <i name="bandstr">     33.99077049 </i>
    <i name="atom">    151.80070846 </i>
    <i name="e_fr_energy">    -12.27865572 </i>
    <i name="e_wo_entrp">    -12.27046168 </i>
    <i name="e_0_energy">    -12.27455870 </i>
   </energy>
  </scstep>
  <scstep>
   <time name="dav">    0.48    0.48</time>
   <time name="total">    0.48    0.48</time>
   <energy>
    <i name="e_fr_energy">    -20.66838729 </i>
    <i name="e_wo_entrp">    -20.66162209 </i>
    <i name="e_0_energy">    -20.66500469 </i>
   </energy>
  </scstep>
  <scstep>
   <time name="dav">    0.27    0.27</time>
   <time name="total">    0.27    0.27</time>
   <energy>
    <i name="e_fr_energy">    -20.68349556 </i>
    <i name="e_wo_entrp">    -20.67674323 </i>
    <i name="e_0_energy">    -20.68011939 </i>
   </energy>
  </scstep>
  <scstep>
   <time name="dav">    0.64    0.64</time>
   <time name="total">    0.64    0.64</time>
   <energy>
    <i name="e_fr_energy">    -20.68350024 </i>
    <i name="e_wo_entrp">    -20.67674792 </i>
    <i name="e_0_energy">    -20.68012408 </i>
   </energy>
  </scstep>
  <scstep>
   <time name="dav">    0.27    0.27</time>
   <time name="total">    0.28    0.28</time>
   <energy>
    <i name="e_fr_energy">    -20.68350024 </i>
    <i name="e_wo_entrp">    -20.67674792 </i>
    <i name="e_0_energy">    -20.68012408 </i>
   </energy>
  </scstep>
  <scstep>
   <time name="dav">    0.34    0.34</time>
   <time name="total">    0.35    0.35</time>
   <energy>
    <i name="e_fr_energy">    -20.19139269 </i>
    <i name="e_wo_entrp">    -20.18408393 </i>
    <i name="e_0_energy">    -20.18773831 </i>
   </energy>
  </scstep>
  <scstep>
   <time name="dav">    0.41    0.41</time>
   <time name="total">    0.42    0.43</time>
   <energy>
    <i name="e_fr_energy">    -19.92114151 </i>
    <i name="e_wo_entrp">    -19.91364069 </i>
    <i name="e_0_energy">    -19.91739110 </i>
   </energy>
  </scstep>
  <scstep>
   <time name="dav">    0.41    0.42</time>
   <time name="total">    0.42    0.43</time>
   <energy>
    <i name="e_fr_energy">    -19.91732362 </i>
    <i name="e_wo_entrp">    -19.90980193 </i>
    <i name="e_0_energy">    -19.91356278 </i>
   </energy>
  </scstep>
  <scstep>
   <time name="dav">    0.47    0.47</time>
   <time name="total">    0.48    0.48</time>
   <energy>
    <i name="e_fr_energy">    -19.91705370 </i>
    <i name="e_wo_entrp">    -19.90951695 </i>
    <i name="e_0_energy">    -19.91328532 </i>
   </energy>
  </scstep>
  <scstep>
   <time name="dav">    0.18    0.18</time>
   <time name="total">    0.18    0.19</time>
   <energy>
    <i name="alphaZ">     29.36899766 </i>
    <i name="ewald">   -235.73844108 </i>
    <i name="hartreedc">     -0.32627120 </i>
    <i name="XCdc">   -105.08194905 </i>
    <i name="pawpsdc">    648.24164505 </i>
    <i name="pawaedc">   -532.22265617 </i>
    <i name="eentropy">     -0.00753593 </i>
    <i name="bandstr">     24.04844755 </i>
    <i name="atom">    151.80070846 </i>
    <i name="e_fr_energy">    -19.91705472 </i>
    <i name="e_wo_entrp">    -19.90951879 </i>
    <i name="e_0_energy">    -19.91328676 </i>
   </energy>
  </scstep>
  <structure>
   <crystal>
    <varray name="basis" >
     <v>       1.59924300      -2.76997000       0.00000000 </v>
     <v>       1.59924300       2.76997000       0.00000000 </v>
     <v>       0.00000000       0.00000000       5.07518500 </v>
    </varray>
    <i name="volume">     44.96466864 </i>
    <varray name="rec_basis" >
     <v>       0.31264792      -0.18050737       0.00000000 </v>
     <v>       0.31264792       0.18050737       0.00000000 </v>
     <v>       0.00000000       0.00000000       0.19703715 </v>
    </varray>
   </crystal>
   <varray name="positions" >
    <v>       0.66666700       0.33333300       0.25000000 </v>
    <v>       0.33333300       0.66666700       0.75000000 </v>
   </varray>
  </structure>
  <varray name="forces" >
   <v>      -0.00000000      -0.00000000       0.00000000 </v>
   <v>       0.00000000       0.00000000      -0.00000000 </v>
  </varray>
  <varray name="stress" >
   <v>      -8.15967553      -0.00000000      -0.00000000 </v>
   <v>      -0.00000000      -8.15967476      -0.00000000 </v>
   <v>      -0.00000000       0.00000000     -14.23925693 </v>
  </varray>
  <energy>
   <i name="e_fr_energy">    -19.91705472 </i>
   <i name="e_wo_entrp">    -19.90951879 </i>
   <i name="e_0_energy">    -19.91328676 </i>
  </energy>
  <time name="totalsc">    4.15    4.24</time>
  <eigenvalues>
   <array>
    <dimension dim="1">band</dimension>
    <dimension dim="2">kpoint</dimension>
    <dimension dim="3">spin</dimension>
    <field>eigene</field>
    <field>occ</field>
    <set>
     <set comment="spin 1">
      <set comment="kpoint 1">
       <r>   -2.1411    1.0000 </r>
       <r>    1.5177    1.0000 </r>
       <r>    5.7999    0.0000 </r>
       <r>    6.3922    0.0000 </r>
       <r>    6.3922    0.0000 </r>
       <r>    6.6337    0.0000 </r>
       <r>    7.1962    0.0000 </r>
       <r>    7.1962    0.0000 </r>
       <r>    7.8493    0.0000 </r>
       <r>    7.8493    0.0000 </r>
       <r>   10.5048    0.0000 </r>
       <r>   10.5048    0.0000 </r>
       <r>   14.0105    0.0000 </r>
       <r>   16.2853    0.0000 </r>
       <r>   17.4883    0.0000 </r>
       <r>   17.4945    0.0000 </r>
       <r>   18.2685    0.0000 </r>
       <r>   19.7075    0.0000 </r>
       <r>   22.5836    0.0000 </r>
       <r>   22.5836    0.0000 </r>
       <r>   22.9543    0.0000 </r>
       <r>   23.3390    0.0000 </r>
       <r>   23.3390    0.0000 </r>
       <r>   26.1882    0.0000 </r>
      </set>
      <set comment="kpoint 2">
       <r>   -1.8976    1.0000 </r>
       <r>    1.7606    1.0000 </r>
       <r>    5.4830    0.0001 </r>
       <r>    5.8307    0.0000 </r>
       <r>    6.6260    0.0000 </r>
       <r>    6.9053    0.0000 </r>
       <r>    7.0845    0.0000 </r>
       <r>    7.4180    0.0000 </r>
       <r>    7.5412    0.0000 </r>
       <r>    7.6197    0.0000 </r>
       <r>   10.6873    0.0000 </r>
       <r>   11.1131    0.0000 </r>
       <r>   14.0740    0.0000 </r>
       <r>   16.9174    0.0000 </r>
       <r>   17.4885    0.0000 </r>
       <r>   17.4951    0.0000 </r>
       <r>   18.6447    0.0000 </r>
       <r>   20.0859    0.0000 </r>
       <r>   21.0729    0.0000 </r>
       <r>   21.5777    0.0000 </r>
       <r>   21.7539    0.0000 </r>
       <r>   23.5903    0.0000 </r>
       <r>   25.6674    0.0000 </r>
       <r>   26.5492    0.0000 </r>
      </set>
      <set comment="kpoint 3">
       <r>   -1.2060    1.0000 </r>
       <r>    2.3903    1.0000 </r>
       <r>    4.7489    1.0000 </r>
       <r>    5.0840    0.9730 </r>
       <r>    6.3348    0.0000 </r>
       <r>    7.0261    0.0000 </r>
       <r>    7.1268    0.0000 </r>
       <r>    7.3121    0.0000 </r>
       <r>    7.6840    0.0000 </r>
       <r>    8.0621    0.0000 </r>
       <r>   11.0419    0.0000 </r>
       <r>   12.3802    0.0000 </r>
       <r>   13.9813    0.0000 </r>
       <r>   17.4862    0.0000 </r>
       <r>   17.4950    0.0000 </r>
       <r>   18.2987    0.0000 </r>
       <r>   18.8877    0.0000 </r>
       <r>   19.9269    0.0000 </r>
       <r>   20.1528    0.0000 </r>
       <r>   20.2588    0.0000 </r>
       <r>   21.3016    0.0000 </r>
       <r>   24.3654    0.0000 </r>
       <r>   25.4053    0.0000 </r>
       <r>   25.5077    0.0000 </r>
      </set>
      <set comment="kpoint 4">
       <r>   -0.1907    1.0000 </r>
       <r>    2.9481    1.0000 </r>
       <r>    3.9651    1.0000 </r>
       <r>    4.6035    1.0000 </r>
       <r>    5.9538    0.0000 </r>
       <r>    6.5715    0.0000 </r>
       <r>    6.6255    0.0000 </r>
       <r>    8.3993    0.0000 </r>
       <r>    8.5284    0.0000 </r>
       <r>    9.0533    0.0000 </r>
       <r>   11.3409    0.0000 </r>
       <r>   13.5447    0.0000 </r>
       <r>   13.7749    0.0000 </r>
       <r>   17.1402    0.0000 </r>
       <r>   17.4884    0.0000 </r>
       <r>   17.4972    0.0000 </r>
       <r>   17.7895    0.0000 </r>
       <r>   18.3436    0.0000 </r>
       <r>   21.2896    0.0000 </r>
       <r>   21.3860    0.0000 </r>
       <r>   21.5369    0.0000 </r>
       <r>   23.7903    0.0000 </r>
       <r>   24.6765    0.0000 </r>
       <r>   25.2279    0.0000 </r>
      </set>
      <set comment="kpoint 5">
       <r>    0.9108    1.0000 </r>
       <r>    2.8540    1.0000 </r>
       <r>    3.3574    1.0000 </r>
       <r>    4.4712    1.0000 </r>
       <r>    6.2424    0.0000 </r>
       <r>    6.2447    0.0000 </r>
       <r>    6.3061    0.0000 </r>
       <r>    9.6949    0.0000 </r>
       <r>    9.7631    0.0000 </r>
       <r>   10.2228    0.0000 </r>
       <r>   11.5193    0.0000 </r>
       <r>   13.1430    0.0000 </r>
       <r>   15.0037    0.0000 </r>
       <r>   15.1397    0.0000 </r>
       <r>   16.4759    0.0000 </r>
       <r>   16.9190    0.0000 </r>
       <r>   17.4685    0.0000 </r>
       <r>   17.4936    0.0000 </r>
       <r>   18.4317    0.0000 </r>
       <r>   21.7445    0.0000 </r>
       <r>   22.5993    0.0000 </r>
       <r>   23.3079    0.0000 </r>
       <r>   25.6254    0.0000 </r>
       <r>   25.7183    0.0000 </r>
      </set>
      <set comment="kpoint 6">
       <r>    1.7287    1.0000 </r>
       <r>    2.5557    1.0000 </r>
       <r>    3.0321    1.0000 </r>
       <r>    4.4036    1.0000 </r>
       <r>    6.0426    0.0000 </r>
       <r>    6.0712    0.0000 </r>
       <r>    6.7982    0.0000 </r>
       <r>   10.9075    0.0000 </r>
       <r>   11.2704    0.0000 </r>
       <r>   11.3137    0.0000 </r>
       <r>   11.5953    0.0000 </r>
       <r>   13.1428    0.0000 </r>
       <r>   13.4516    0.0000 </r>
       <r>   14.8752    0.0000 </r>
       <r>   15.7989    0.0000 </r>
       <r>   15.7990    0.0000 </r>
       <r>   16.4181    0.0000 </r>
       <r>   17.4931    0.0000 </r>
       <r>   17.5047    0.0000 </r>
       <r>   20.9653    0.0000 </r>
       <r>   21.5387    0.0000 </r>
       <r>   23.8216    0.0000 </r>
       <r>   27.4277    0.0000 </r>
       <r>   28.1387    0.0000 </r>
      </set>
      <set comment="kpoint 7">
       <r>   -1.4286    1.0000 </r>
       <r>    2.2081    1.0000 </r>
       <r>    4.9742    0.9997 </r>
       <r>    5.2553    0.3102 </r>
       <r>    6.5146    0.0000 </r>
       <r>    6.9936    0.0000 </r>
       <r>    7.1131    0.0000 </r>
       <r>    7.3926    0.0000 </r>
       <r>    7.4381    0.0000 </r>
       <r>    7.9251    0.0000 </r>
       <r>   10.8829    0.0000 </r>
       <r>   12.0655    0.0000 </r>
       <r>   14.0451    0.0000 </r>
       <r>   17.4862    0.0000 </r>
       <r>   17.4953    0.0000 </r>
       <r>   17.9817    0.0000 </r>
       <r>   19.2746    0.0000 </r>
       <r>   19.8774    0.0000 </r>
       <r>   20.1865    0.0000 </r>
       <r>   20.5925    0.0000 </r>
       <r>   20.9402    0.0000 </r>
       <r>   24.1682    0.0000 </r>
       <r>   25.9306    0.0000 </r>
       <r>   26.5779    0.0000 </r>
      </set>
      <set comment="kpoint 8">
       <r>   -0.5637    1.0000 </r>
       <r>    2.9006    1.0000 </r>
       <r>    4.2636    1.0000 </r>
       <r>    4.6090    1.0000 </r>
       <r>    6.0292    0.0000 </r>
       <r>    6.4113    0.0000 </r>
       <r>    7.0763    0.0000 </r>
       <r>    7.9328    0.0000 </r>
       <r>    8.0575    0.0000 </r>
       <r>    8.8569    0.0000 </r>
       <r>   11.1195    0.0000 </r>
       <r>   13.4118    0.0000 </r>
       <r>   13.7411    0.0000 </r>
       <r>   17.4822    0.0000 </r>
       <r>   17.4938    0.0000 </r>
       <r>   17.9577    0.0000 </r>
       <r>   18.5282    0.0000 </r>
       <r>   18.5863    0.0000 </r>
       <r>   20.3963    0.0000 </r>
       <r>   20.5819    0.0000 </r>
       <r>   22.2920    0.0000 </r>
       <r>   23.9168    0.0000 </r>
       <r>   24.7705    0.0000 </r>
       <r>   25.3983    0.0000 </r>
      </set>
      <set comment="kpoint 9">
       <r>    0.5318    1.0000 </r>
       <r>    3.1596    1.0000 </r>
       <r>    3.6116    1.0000 </r>
       <r>    4.3673    1.0000 </r>
       <r>    6.0024    0.0000 </r>
       <r>    6.0263    0.0000 </r>
       <r>    6.6229    0.0000 </r>
       <r>    8.7747    0.0000 </r>
       <r>    9.2928    0.0000 </r>
       <r>   10.0527    0.0000 </r>
       <r>   11.3054    0.0000 </r>
       <r>   13.2979    0.0000 </r>
       <r>   14.7690    0.0000 </r>
       <r>   15.9339    0.0000 </r>
       <r>   16.6782    0.0000 </r>
       <r>   17.4899    0.0000 </r>
       <r>   17.4941    0.0000 </r>
       <r>   17.6189    0.0000 </r>
       <r>   20.2404    0.0000 </r>
       <r>   21.3028    0.0000 </r>
       <r>   22.6767    0.0000 </r>
       <r>   23.5011    0.0000 </r>
       <r>   24.5775    0.0000 </r>
       <r>   25.3991    0.0000 </r>
      </set>
      <set comment="kpoint 10">
       <r>    1.5571    1.0000 </r>
       <r>    2.8786    1.0000 </r>
       <r>    3.1704    1.0000 </r>
       <r>    4.3193    1.0000 </r>
       <r>    5.8702    0.0000 </r>
       <r>    6.2212    0.0000 </r>
       <r>    6.5979    0.0000 </r>
       <r>    9.8949    0.0000 </r>
       <r>   10.4680    0.0000 </r>
       <r>   11.3448    0.0000 </r>
       <r>   11.4037    0.0000 </r>
       <r>   13.2542    0.0000 </r>
       <r>   14.0241    0.0000 </r>
       <r>   14.7340    0.0000 </r>
       <r>   15.8524    0.0000 </r>
       <r>   16.9904    0.0000 </r>
       <r>   17.4269    0.0000 </r>
       <r>   17.4931    0.0000 </r>
       <r>   17.7087    0.0000 </r>
       <r>   21.3797    0.0000 </r>
       <r>   21.4262    0.0000 </r>
       <r>   24.3130    0.0000 </r>
       <r>   25.9775    0.0000 </r>
       <r>   26.5759    0.0000 </r>
      </set>
      <set comment="kpoint 11">
       <r>    2.0484    1.0000 </r>
       <r>    2.6735    1.0000 </r>
       <r>    3.0158    1.0000 </r>
       <r>    4.2992    1.0000 </r>
       <r>    5.8954    0.0000 </r>
       <r>    6.0020    0.0000 </r>
       <r>    6.9014    0.0000 </r>
       <r>   10.8649    0.0000 </r>
       <r>   11.0101    0.0000 </r>
       <r>   11.4322    0.0000 </r>
       <r>   12.2708    0.0000 </r>
       <r>   12.5296    0.0000 </r>
       <r>   13.5425    0.0000 </r>
       <r>   13.8938    0.0000 </r>
       <r>   16.2409    0.0000 </r>
       <r>   16.3353    0.0000 </r>
       <r>   16.7195    0.0000 </r>
       <r>   17.4928    0.0000 </r>
       <r>   17.5050    0.0000 </r>
       <r>   20.6208    0.0000 </r>
       <r>   21.2720    0.0000 </r>
       <r>   24.3276    0.0000 </r>
       <r>   27.3168    0.0000 </r>
       <r>   27.7500    0.0000 </r>
      </set>
      <set comment="kpoint 12">
       <r>    0.4104    1.0000 </r>
       <r>    3.5296    1.0000 </r>
       <r>    3.7488    1.0000 </r>
       <r>    4.0682    1.0000 </r>
       <r>    5.8759    0.0000 </r>
       <r>    5.8763    0.0000 </r>
       <r>    6.7969    0.0000 </r>
       <r>    8.3869    0.0000 </r>
       <r>    9.1527    0.0000 </r>
       <r>   10.0449    0.0000 </r>
       <r>   11.1286    0.0000 </r>
       <r>   13.3939    0.0000 </r>
       <r>   14.7845    0.0000 </r>
       <r>   16.3348    0.0000 </r>
       <r>   16.4646    0.0000 </r>
       <r>   17.4926    0.0000 </r>
       <r>   17.4944    0.0000 </r>
       <r>   18.3735    0.0000 </r>
       <r>   20.4847    0.0000 </r>
       <r>   20.9762    0.0000 </r>
       <r>   22.9428    0.0000 </r>
       <r>   23.1692    0.0000 </r>
       <r>   24.2288    0.0000 </r>
       <r>   26.1551    0.0000 </r>
      </set>
      <set comment="kpoint 13">
       <r>    1.5226    1.0000 </r>
       <r>    3.3319    1.0000 </r>
       <r>    3.4721    1.0000 </r>
       <r>    4.0270    1.0000 </r>
       <r>    5.6114    0.0000 </r>
       <r>    6.2753    0.0000 </r>
       <r>    6.3558    0.0000 </r>
       <r>    9.1023    0.0000 </r>
       <r>   10.1390    0.0000 </r>
       <r>   11.1299    0.0000 </r>
       <r>   11.3168    0.0000 </r>
       <r>   13.2156    0.0000 </r>
       <r>   14.4839    0.0000 </r>
       <r>   14.5659    0.0000 </r>
       <r>   16.1386    0.0000 </r>
       <r>   17.4877    0.0000 </r>
       <r>   17.4931    0.0000 </r>
       <r>   18.0485    0.0000 </r>
       <r>   19.1371    0.0000 </r>
       <r>   20.7200    0.0000 </r>
       <r>   21.6727    0.0000 </r>
       <r>   24.4265    0.0000 </r>
       <r>   25.2303    0.0000 </r>
       <r>   26.5616    0.0000 </r>
      </set>
      <set comment="kpoint 14">
       <r>    2.3809    1.0000 </r>
       <r>    3.0994    1.0000 </r>
       <r>    3.1993    1.0000 </r>
       <r>    4.0455    1.0000 </r>
       <r>    5.6140    0.0000 </r>
       <r>    5.9562    0.0000 </r>
       <r>    6.9083    0.0000 </r>
       <r>   10.0076    0.0000 </r>
       <r>   10.6673    0.0000 </r>
       <r>   11.1234    0.0000 </r>
       <r>   12.0258    0.0000 </r>
       <r>   12.1990    0.0000 </r>
       <r>   13.0609    0.0000 </r>
       <r>   14.8193    0.0000 </r>
       <r>   17.1187    0.0000 </r>
       <r>   17.4176    0.0000 </r>
       <r>   17.4925    0.0000 </r>
       <r>   17.6368    0.0000 </r>
       <r>   17.7651    0.0000 </r>
       <r>   20.3272    0.0000 </r>
       <r>   20.6816    0.0000 </r>
       <r>   25.6036    0.0000 </r>
       <r>   25.6917    0.0000 </r>
       <r>   26.6818    0.0000 </r>
      </set>
      <set comment="kpoint 15">
       <r>    2.5553    1.0000 </r>
       <r>    3.1592    1.0000 </r>
       <r>    3.6604    1.0000 </r>
       <r>    3.7710    1.0000 </r>
       <r>    5.4569    0.0004 </r>
       <r>    5.9531    0.0000 </r>
       <r>    6.8206    0.0000 </r>
       <r>    9.6491    0.0000 </r>
       <r>   10.3494    0.0000 </r>
       <r>   10.9809    0.0000 </r>
       <r>   11.9585    0.0000 </r>
       <r>   12.0462    0.0000 </r>
       <r>   12.9443    0.0000 </r>
       <r>   15.2817    0.0000 </r>
       <r>   17.4851    0.0000 </r>
       <r>   17.4925    0.0000 </r>
       <r>   17.5301    0.0000 </r>
       <r>   18.3810    0.0000 </r>
       <r>   18.6023    0.0000 </r>
       <r>   20.0403    0.0000 </r>
       <r>   20.1408    0.0000 </r>
       <r>   24.6824    0.0000 </r>
       <r>   25.9218    0.0000 </r>
       <r>   27.8784    0.0000 </r>
      </set>
      <set comment="kpoint 16">
       <r>    3.0970    1.0000 </r>
       <r>    3.1007    1.0000 </r>
       <r>    3.5868    1.0000 </r>
       <r>    3.7493    1.0000 </r>
       <r>    5.5172    0.0000 </r>
       <r>    5.6817    0.0000 </r>
       <r>    7.1696    0.0000 </r>
       <r>   10.1735    0.0000 </r>
       <r>   10.4750    0.0000 </r>
       <r>   10.9239    0.0000 </r>
       <r>   11.0588    0.0000 </r>
       <r>   11.2436    0.0000 </r>
       <r>   13.0348    0.0000 </r>
       <r>   16.6180    0.0000 </r>
       <r>   17.4648    0.0000 </r>
       <r>   17.4924    0.0000 </r>
       <r>   17.8605    0.0000 </r>
       <r>   18.4133    0.0000 </r>
       <r>   18.6808    0.0000 </r>
       <r>   18.9491    0.0000 </r>
       <r>   19.7768    0.0000 </r>
       <r>   25.5002    0.0000 </r>
       <r>   25.5415    0.0000 </r>
       <r>   26.6100    0.0000 </r>
      </set>
      <set comment="kpoint 17">
       <r>   -2.0669    1.0000 </r>
       <r>    1.4767    1.0000 </r>
       <r>    5.6894    0.0000 </r>
       <r>    6.3465    0.0000 </r>
       <r>    6.3466    0.0000 </r>
       <r>    6.5669    0.0000 </r>
       <r>    7.1327    0.0000 </r>
       <r>    7.1327    0.0000 </r>
       <r>    7.9758    0.0000 </r>
       <r>    7.9758    0.0000 </r>
       <r>   10.5385    0.0000 </r>
       <r>   10.5385    0.0000 </r>
       <r>   14.2775    0.0000 </r>
       <r>   16.0946    0.0000 </r>
       <r>   17.4882    0.0000 </r>
       <r>   17.4948    0.0000 </r>
       <r>   18.6795    0.0000 </r>
       <r>   19.3197    0.0000 </r>
       <r>   21.8284    0.0000 </r>
       <r>   21.8284    0.0000 </r>
       <r>   23.4634    0.0000 </r>
       <r>   24.2833    0.0000 </r>
       <r>   24.2833    0.0000 </r>
       <r>   25.6325    0.0000 </r>
      </set>
      <set comment="kpoint 18">
       <r>   -1.8250    1.0000 </r>
       <r>    1.7205    1.0000 </r>
       <r>    5.3587    0.0251 </r>
       <r>    5.8311    0.0000 </r>
       <r>    6.5621    0.0000 </r>
       <r>    6.8238    0.0000 </r>
       <r>    6.9462    0.0000 </r>
       <r>    7.3294    0.0000 </r>
       <r>    7.7779    0.0000 </r>
       <r>    7.7926    0.0000 </r>
       <r>   10.7064    0.0000 </r>
       <r>   11.0642    0.0000 </r>
       <r>   14.3475    0.0000 </r>
       <r>   16.7222    0.0000 </r>
       <r>   17.4883    0.0000 </r>
       <r>   17.4955    0.0000 </r>
       <r>   19.0350    0.0000 </r>
       <r>   19.5097    0.0000 </r>
       <r>   21.0098    0.0000 </r>
       <r>   21.3857    0.0000 </r>
       <r>   22.1859    0.0000 </r>
       <r>   24.0333    0.0000 </r>
       <r>   25.4471    0.0000 </r>
       <r>   26.0375    0.0000 </r>
      </set>
      <set comment="kpoint 19">
       <r>   -1.1393    1.0000 </r>
       <r>    2.3554    1.0000 </r>
       <r>    4.6300    1.0000 </r>
       <r>    5.1039    0.9500 </r>
       <r>    6.3657    0.0000 </r>
       <r>    6.8472    0.0000 </r>
       <r>    6.9757    0.0000 </r>
       <r>    7.4981    0.0000 </r>
       <r>    7.8783    0.0000 </r>
       <r>    8.0482    0.0000 </r>
       <r>   11.0286    0.0000 </r>
       <r>   12.1567    0.0000 </r>
       <r>   14.2885    0.0000 </r>
       <r>   17.4860    0.0000 </r>
       <r>   17.4953    0.0000 </r>
       <r>   18.1744    0.0000 </r>
       <r>   18.6814    0.0000 </r>
       <r>   20.1214    0.0000 </r>
       <r>   20.1766    0.0000 </r>
       <r>   20.4109    0.0000 </r>
       <r>   21.5747    0.0000 </r>
       <r>   24.3962    0.0000 </r>
       <r>   24.4411    0.0000 </r>
       <r>   25.8855    0.0000 </r>
      </set>
      <set comment="kpoint 20">
       <r>   -0.1381    1.0000 </r>
       <r>    2.9309    1.0000 </r>
       <r>    3.8912    1.0000 </r>
       <r>    4.6296    1.0000 </r>
       <r>    5.9119    0.0000 </r>
       <r>    6.5634    0.0000 </r>
       <r>    6.6544    0.0000 </r>
       <r>    8.4222    0.0000 </r>
       <r>    8.5846    0.0000 </r>
       <r>    9.0076    0.0000 </r>
       <r>   11.2939    0.0000 </r>
       <r>   13.0598    0.0000 </r>
       <r>   14.1477    0.0000 </r>
       <r>   17.2217    0.0000 </r>
       <r>   17.4887    0.0000 </r>
       <r>   17.4935    0.0000 </r>
       <r>   18.0460    0.0000 </r>
       <r>   18.4609    0.0000 </r>
       <r>   20.7675    0.0000 </r>
       <r>   21.4046    0.0000 </r>
       <r>   22.1402    0.0000 </r>
       <r>   23.5817    0.0000 </r>
       <r>   24.4176    0.0000 </r>
       <r>   24.9051    0.0000 </r>
      </set>
      <set comment="kpoint 21">
       <r>    0.9307    1.0000 </r>
       <r>    2.8392    1.0000 </r>
       <r>    3.3773    1.0000 </r>
       <r>    4.4631    1.0000 </r>
       <r>    6.0856    0.0000 </r>
       <r>    6.2991    0.0000 </r>
       <r>    6.4324    0.0000 </r>
       <r>    9.6915    0.0000 </r>
       <r>    9.7576    0.0000 </r>
       <r>   10.1278    0.0000 </r>
       <r>   11.4558    0.0000 </r>
       <r>   13.0780    0.0000 </r>
       <r>   14.3211    0.0000 </r>
       <r>   15.8800    0.0000 </r>
       <r>   16.6858    0.0000 </r>
       <r>   17.1348    0.0000 </r>
       <r>   17.4677    0.0000 </r>
       <r>   17.4951    0.0000 </r>
       <r>   18.4077    0.0000 </r>
       <r>   21.7535    0.0000 </r>
       <r>   22.5305    0.0000 </r>
       <r>   23.0399    0.0000 </r>
       <r>   25.5350    0.0000 </r>
       <r>   25.9866    0.0000 </r>
      </set>
      <set comment="kpoint 22">
       <r>    1.6788    1.0000 </r>
       <r>    2.5478    1.0000 </r>
       <r>    3.1709    1.0000 </r>
       <r>    4.2951    1.0000 </r>
       <r>    6.1048    0.0000 </r>
       <r>    6.1721    0.0000 </r>
       <r>    6.7307    0.0000 </r>
       <r>   10.9022    0.0000 </r>
       <r>   11.0714    0.0000 </r>
       <r>   11.2282    0.0000 </r>
       <r>   11.5537    0.0000 </r>
       <r>   12.9688    0.0000 </r>
       <r>   13.4507    0.0000 </r>
       <r>   15.2040    0.0000 </r>
       <r>   15.4222    0.0000 </r>
       <r>   16.3033    0.0000 </r>
       <r>   16.6498    0.0000 </r>
       <r>   17.4933    0.0000 </r>
       <r>   17.5060    0.0000 </r>
       <r>   20.9185    0.0000 </r>
       <r>   21.5378    0.0000 </r>
       <r>   23.7038    0.0000 </r>
       <r>   27.5061    0.0000 </r>
       <r>   28.1610    0.0000 </r>
      </set>
      <set comment="kpoint 23">
       <r>   -1.3597    1.0000 </r>
       <r>    2.1708    1.0000 </r>
       <r>    4.8466    1.0000 </r>
       <r>    5.2726    0.2294 </r>
       <r>    6.5792    0.0000 </r>
       <r>    6.7646    0.0000 </r>
       <r>    6.9604    0.0000 </r>
       <r>    7.5053    0.0000 </r>
       <r>    7.6460    0.0000 </r>
       <r>    7.9868    0.0000 </r>
       <r>   10.8844    0.0000 </r>
       <r>   11.8976    0.0000 </r>
       <r>   14.3379    0.0000 </r>
       <r>   17.4856    0.0000 </r>
       <r>   17.4957    0.0000 </r>
       <r>   17.7928    0.0000 </r>
       <r>   19.2859    0.0000 </r>
       <r>   19.5137    0.0000 </r>
       <r>   20.4912    0.0000 </r>
       <r>   20.6573    0.0000 </r>
       <r>   21.3424    0.0000 </r>
       <r>   24.1754    0.0000 </r>
       <r>   25.0621    0.0000 </r>
       <r>   26.8981    0.0000 </r>
      </set>
      <set comment="kpoint 24">
       <r>   -0.5041    1.0000 </r>
       <r>    2.8757    1.0000 </r>
       <r>    4.1567    1.0000 </r>
       <r>    4.6346    1.0000 </r>
       <r>    6.0718    0.0000 </r>
       <r>    6.3817    0.0000 </r>
       <r>    6.9969    0.0000 </r>
       <r>    7.9455    0.0000 </r>
       <r>    8.1642    0.0000 </r>
       <r>    8.8509    0.0000 </r>
       <r>   11.0909    0.0000 </r>
       <r>   12.9374    0.0000 </r>
       <r>   14.1949    0.0000 </r>
       <r>   17.4825    0.0000 </r>
       <r>   17.4943    0.0000 </r>
       <r>   17.9429    0.0000 </r>
       <r>   18.4605    0.0000 </r>
       <r>   18.8861    0.0000 </r>
       <r>   20.0105    0.0000 </r>
       <r>   21.1970    0.0000 </r>
       <r>   22.3899    0.0000 </r>
       <r>   23.5586    0.0000 </r>
       <r>   24.3057    0.0000 </r>
       <r>   25.5357    0.0000 </r>
      </set>
      <set comment="kpoint 25">
       <r>    0.5707    1.0000 </r>
       <r>    3.1525    1.0000 </r>
       <r>    3.5676    1.0000 </r>
       <r>    4.4005    1.0000 </r>
       <r>    5.8333    0.0000 </r>
       <r>    6.2053    0.0000 </r>
       <r>    6.5874    0.0000 </r>
       <r>    8.7525    0.0000 </r>
       <r>    9.3521    0.0000 </r>
       <r>    9.9778    0.0000 </r>
       <r>   11.2670    0.0000 </r>
       <r>   13.2072    0.0000 </r>
       <r>   14.4654    0.0000 </r>
       <r>   16.3548    0.0000 </r>
       <r>   16.8227    0.0000 </r>
       <r>   17.4910    0.0000 </r>
       <r>   17.4925    0.0000 </r>
       <r>   17.8105    0.0000 </r>
       <r>   20.1137    0.0000 </r>
       <r>   21.4985    0.0000 </r>
       <r>   22.5489    0.0000 </r>
       <r>   23.2494    0.0000 </r>
       <r>   24.4662    0.0000 </r>
       <r>   25.4791    0.0000 </r>
      </set>
      <set comment="kpoint 26">
       <r>    1.5470    1.0000 </r>
       <r>    2.8609    1.0000 </r>
       <r>    3.2476    1.0000 </r>
       <r>    4.2882    1.0000 </r>
       <r>    5.8858    0.0000 </r>
       <r>    6.2161    0.0000 </r>
       <r>    6.6043    0.0000 </r>
       <r>    9.8433    0.0000 </r>
       <r>   10.5276    0.0000 </r>
       <r>   10.9421    0.0000 </r>
       <r>   11.5981    0.0000 </r>
       <r>   13.2830    0.0000 </r>
       <r>   13.7166    0.0000 </r>
       <r>   14.9493    0.0000 </r>
       <r>   16.0317    0.0000 </r>
       <r>   17.1745    0.0000 </r>
       <r>   17.4509    0.0000 </r>
       <r>   17.4939    0.0000 </r>
       <r>   17.7994    0.0000 </r>
       <r>   21.3733    0.0000 </r>
       <r>   21.3928    0.0000 </r>
       <r>   24.0198    0.0000 </r>
       <r>   26.0930    0.0000 </r>
       <r>   26.6795    0.0000 </r>
      </set>
      <set comment="kpoint 27">
       <r>    1.9679    1.0000 </r>
       <r>    2.6809    1.0000 </r>
       <r>    3.1826    1.0000 </r>
       <r>    4.1919    1.0000 </r>
       <r>    5.9073    0.0000 </r>
       <r>    6.0834    0.0000 </r>
       <r>    6.8744    0.0000 </r>
       <r>   10.8399    0.0000 </r>
       <r>   10.9603    0.0000 </r>
       <r>   11.1608    0.0000 </r>
       <r>   12.1920    0.0000 </r>
       <r>   12.5081    0.0000 </r>
       <r>   13.8534    0.0000 </r>
       <r>   13.8864    0.0000 </r>
       <r>   15.7982    0.0000 </r>
       <r>   16.8809    0.0000 </r>
       <r>   16.9364    0.0000 </r>
       <r>   17.4930    0.0000 </r>
       <r>   17.5085    0.0000 </r>
       <r>   20.5609    0.0000 </r>
       <r>   21.3085    0.0000 </r>
       <r>   24.2152    0.0000 </r>
       <r>   27.3662    0.0000 </r>
       <r>   27.5729    0.0000 </r>
      </set>
      <set comment="kpoint 28">
       <r>    0.4563    1.0000 </r>
       <r>    3.5304    1.0000 </r>
       <r>    3.6683    1.0000 </r>
       <r>    4.0960    1.0000 </r>
       <r>    5.8511    0.0000 </r>
       <r>    5.9486    0.0000 </r>
       <r>    6.7106    0.0000 </r>
       <r>    8.3741    0.0000 </r>
       <r>    9.2397    0.0000 </r>
       <r>    9.9703    0.0000 </r>
       <r>   11.1121    0.0000 </r>
       <r>   13.3086    0.0000 </r>
       <r>   14.5632    0.0000 </r>
       <r>   16.5644    0.0000 </r>
       <r>   16.7088    0.0000 </r>
       <r>   17.4932    0.0000 </r>
       <r>   17.4940    0.0000 </r>
       <r>   18.5066    0.0000 </r>
       <r>   20.4144    0.0000 </r>
       <r>   21.1371    0.0000 </r>
       <r>   22.9602    0.0000 </r>
       <r>   22.9745    0.0000 </r>
       <r>   23.9624    0.0000 </r>
       <r>   26.0446    0.0000 </r>
      </set>
      <set comment="kpoint 29">
       <r>    1.5425    1.0000 </r>
       <r>    3.2809    1.0000 </r>
       <r>    3.5071    1.0000 </r>
       <r>    4.0787    1.0000 </r>
       <r>    5.6011    0.0000 </r>
       <r>    6.1956    0.0000 </r>
       <r>    6.3635    0.0000 </r>
       <r>    9.0781    0.0000 </r>
       <r>   10.2681    0.0000 </r>
       <r>   10.7268    0.0000 </r>
       <r>   11.5514    0.0000 </r>
       <r>   13.2728    0.0000 </r>
       <r>   14.1460    0.0000 </r>
       <r>   14.6689    0.0000 </r>
       <r>   16.4857    0.0000 </r>
       <r>   17.4879    0.0000 </r>
       <r>   17.4930    0.0000 </r>
       <r>   18.1665    0.0000 </r>
       <r>   19.1085    0.0000 </r>
       <r>   20.8176    0.0000 </r>
       <r>   21.7003    0.0000 </r>
       <r>   23.8337    0.0000 </r>
       <r>   25.4627    0.0000 </r>
       <r>   26.6749    0.0000 </r>
      </set>
      <set comment="kpoint 30">
       <r>    2.3265    1.0000 </r>
       <r>    3.1593    1.0000 </r>
       <r>    3.2618    1.0000 </r>
       <r>    4.0178    1.0000 </r>
       <r>    5.6071    0.0000 </r>
       <r>    5.9094    0.0000 </r>
       <r>    6.9140    0.0000 </r>
       <r>    9.9839    0.0000 </r>
       <r>   10.7580    0.0000 </r>
       <r>   10.8096    0.0000 </r>
       <r>   12.0100    0.0000 </r>
       <r>   12.2222    0.0000 </r>
       <r>   13.3845    0.0000 </r>
       <r>   14.7112    0.0000 </r>
       <r>   16.8003    0.0000 </r>
       <r>   17.4841    0.0000 </r>
       <r>   17.4924    0.0000 </r>
       <r>   17.8681    0.0000 </r>
       <r>   17.9977    0.0000 </r>
       <r>   20.2603    0.0000 </r>
       <r>   20.7868    0.0000 </r>
       <r>   25.1716    0.0000 </r>
       <r>   25.8511    0.0000 </r>
       <r>   26.7210    0.0000 </r>
      </set>
      <set comment="kpoint 31">
       <r>    2.5599    1.0000 </r>
       <r>    3.1389    1.0000 </r>
       <r>    3.6775    1.0000 </r>
       <r>    3.8385    1.0000 </r>
       <r>    5.4633    0.0003 </r>
       <r>    5.8228    0.0000 </r>
       <r>    6.8229    0.0000 </r>
       <r>    9.6385    0.0000 </r>
       <r>   10.5458    0.0000 </r>
       <r>   10.6420    0.0000 </r>
       <r>   11.9936    0.0000 </r>
       <r>   12.0071    0.0000 </r>
       <r>   13.2785    0.0000 </r>
       <r>   15.1017    0.0000 </r>
       <r>   17.4841    0.0000 </r>
       <r>   17.4925    0.0000 </r>
       <r>   17.6014    0.0000 </r>
       <r>   18.2620    0.0000 </r>
       <r>   18.6753    0.0000 </r>
       <r>   20.1817    0.0000 </r>
       <r>   20.2879    0.0000 </r>
       <r>   24.3911    0.0000 </r>
       <r>   25.9689    0.0000 </r>
       <r>   27.7949    0.0000 </r>
      </set>
      <set comment="kpoint 32">
       <r>    2.9916    1.0000 </r>
       <r>    3.2550    1.0000 </r>
       <r>    3.6140    1.0000 </r>
       <r>    3.7255    1.0000 </r>
       <r>    5.4837    0.0001 </r>
       <r>    5.6112    0.0000 </r>
       <r>    7.1646    0.0000 </r>
       <r>   10.2027    0.0000 </r>
       <r>   10.5459    0.0000 </r>
       <r>   10.6354    0.0000 </r>
       <r>   11.0697    0.0000 </r>
       <r>   11.2998    0.0000 </r>
       <r>   13.3740    0.0000 </r>
       <r>   16.5324    0.0000 </r>
       <r>   17.2558    0.0000 </r>
       <r>   17.4922    0.0000 </r>
       <r>   17.5229    0.0000 </r>
       <r>   18.4848    0.0000 </r>
       <r>   18.9537    0.0000 </r>
       <r>   19.0529    0.0000 </r>
       <r>   20.0453    0.0000 </r>
       <r>   25.3374    0.0000 </r>
       <r>   25.4890    0.0000 </r>
       <r>   26.4220    0.0000 </r>
      </set>
      <set comment="kpoint 33">
       <r>   -1.8480    1.0000 </r>
       <r>    1.3357    1.0000 </r>
       <r>    5.4392    0.0010 </r>
       <r>    6.2560    0.0000 </r>
       <r>    6.2560    0.0000 </r>
       <r>    6.3778    0.0000 </r>
       <r>    6.9671    0.0000 </r>
       <r>    6.9671    0.0000 </r>
       <r>    8.3035    0.0000 </r>
       <r>    8.3035    0.0000 </r>
       <r>   10.6000    0.0000 </r>
       <r>   10.6000    0.0000 </r>
       <r>   15.0140    0.0000 </r>
       <r>   15.8076    0.0000 </r>
       <r>   17.4880    0.0000 </r>
       <r>   17.4957    0.0000 </r>
       <r>   18.5408    0.0000 </r>
       <r>   19.5889    0.0000 </r>
       <r>   21.0427    0.0000 </r>
       <r>   21.0427    0.0000 </r>
       <r>   24.5312    0.0000 </r>
       <r>   24.5312    0.0000 </r>
       <r>   24.5940    0.0000 </r>
       <r>   25.6446    0.0000 </r>
      </set>
      <set comment="kpoint 34">
       <r>   -1.6107    1.0000 </r>
       <r>    1.5790    1.0000 </r>
       <r>    5.1024    0.9522 </r>
       <r>    5.8403    0.0000 </r>
       <r>    6.4470    0.0000 </r>
       <r>    6.4745    0.0000 </r>
       <r>    6.8725    0.0000 </r>
       <r>    7.1531    0.0000 </r>
       <r>    8.1636    0.0000 </r>
       <r>    8.1956    0.0000 </r>
       <r>   10.7276    0.0000 </r>
       <r>   10.9627    0.0000 </r>
       <r>   15.0561    0.0000 </r>
       <r>   16.4348    0.0000 </r>
       <r>   17.4879    0.0000 </r>
       <r>   17.4970    0.0000 </r>
       <r>   18.6784    0.0000 </r>
       <r>   19.8999    0.0000 </r>
       <r>   20.7122    0.0000 </r>
       <r>   20.8419    0.0000 </r>
       <r>   23.1179    0.0000 </r>
       <r>   24.3401    0.0000 </r>
       <r>   24.3712    0.0000 </r>
       <r>   26.1991    0.0000 </r>
      </set>
      <set comment="kpoint 35">
       <r>   -0.9419    1.0000 </r>
       <r>    2.2159    1.0000 </r>
       <r>    4.4113    1.0000 </r>
       <r>    5.1632    0.7901 </r>
       <r>    6.2513    0.0000 </r>
       <r>    6.6477    0.0000 </r>
       <r>    6.8312    0.0000 </r>
       <r>    7.5932    0.0000 </r>
       <r>    8.1770    0.0000 </r>
       <r>    8.2414    0.0000 </r>
       <r>   10.9618    0.0000 </r>
       <r>   11.7631    0.0000 </r>
       <r>   14.8751    0.0000 </r>
       <r>   17.4853    0.0000 </r>
       <r>   17.4957    0.0000 </r>
       <r>   17.9491    0.0000 </r>
       <r>   18.5735    0.0000 </r>
       <r>   20.0256    0.0000 </r>
       <r>   20.1036    0.0000 </r>
       <r>   21.2301    0.0000 </r>
       <r>   22.1133    0.0000 </r>
       <r>   23.2518    0.0000 </r>
       <r>   24.4322    0.0000 </r>
       <r>   25.9391    0.0000 </r>
      </set>
      <set comment="kpoint 36">
       <r>    0.0181    1.0000 </r>
       <r>    2.8105    1.0000 </r>
       <r>    3.7859    1.0000 </r>
       <r>    4.6959    1.0000 </r>
       <r>    5.7910    0.0000 </r>
       <r>    6.5157    0.0000 </r>
       <r>    6.7412    0.0000 </r>
       <r>    8.4191    0.0000 </r>
       <r>    8.7391    0.0000 </r>
       <r>    8.9599    0.0000 </r>
       <r>   11.1464    0.0000 </r>
       <r>   12.4913    0.0000 </r>
       <r>   14.4102    0.0000 </r>
       <r>   17.4819    0.0000 </r>
       <r>   17.4923    0.0000 </r>
       <r>   17.7166    0.0000 </r>
       <r>   18.4802    0.0000 </r>
       <r>   18.8094    0.0000 </r>
       <r>   20.3206    0.0000 </r>
       <r>   21.1289    0.0000 </r>
       <r>   22.6800    0.0000 </r>
       <r>   23.5358    0.0000 </r>
       <r>   24.1593    0.0000 </r>
       <r>   24.3702    0.0000 </r>
      </set>
      <set comment="kpoint 37">
       <r>    0.9949    1.0000 </r>
       <r>    2.7470    1.0000 </r>
       <r>    3.4581    1.0000 </r>
       <r>    4.4712    1.0000 </r>
       <r>    5.9350    0.0000 </r>
       <r>    6.4611    0.0000 </r>
       <r>    6.4748    0.0000 </r>
       <r>    9.5928    0.0000 </r>
       <r>    9.6960    0.0000 </r>
       <r>   10.0192    0.0000 </r>
       <r>   11.3008    0.0000 </r>
       <r>   12.8079    0.0000 </r>
       <r>   13.8703    0.0000 </r>
       <r>   16.5605    0.0000 </r>
       <r>   17.2507    0.0000 </r>
       <r>   17.4679    0.0000 </r>
       <r>   17.4860    0.0000 </r>
       <r>   17.6972    0.0000 </r>
       <r>   18.4423    0.0000 </r>
       <r>   21.4871    0.0000 </r>
       <r>   22.3213    0.0000 </r>
       <r>   22.7772    0.0000 </r>
       <r>   25.7526    0.0000 </r>
       <r>   26.1418    0.0000 </r>
      </set>
      <set comment="kpoint 38">
       <r>    1.5904    1.0000 </r>
       <r>    2.5157    1.0000 </r>
       <r>    3.4791    1.0000 </r>
       <r>    4.1110    1.0000 </r>
       <r>    6.2902    0.0000 </r>
       <r>    6.3610    0.0000 </r>
       <r>    6.5563    0.0000 </r>
       <r>   10.3936    0.0000 </r>
       <r>   10.9743    0.0000 </r>
       <r>   11.1237    0.0000 </r>
       <r>   11.5028    0.0000 </r>
       <r>   12.5466    0.0000 </r>
       <r>   13.4859    0.0000 </r>
       <r>   15.1272    0.0000 </r>
       <r>   15.9740    0.0000 </r>
       <r>   16.8950    0.0000 </r>
       <r>   17.2586    0.0000 </r>
       <r>   17.4967    0.0000 </r>
       <r>   17.5138    0.0000 </r>
       <r>   20.7725    0.0000 </r>
       <r>   21.5035    0.0000 </r>
       <r>   23.4450    0.0000 </r>
       <r>   27.6778    0.0000 </r>
       <r>   28.0955    0.0000 </r>
      </set>
      <set comment="kpoint 39">
       <r>   -1.1559    1.0000 </r>
       <r>    2.0294    1.0000 </r>
       <r>    4.6073    1.0000 </r>
       <r>    5.3258    0.0678 </r>
       <r>    6.3836    0.0000 </r>
       <r>    6.6524    0.0000 </r>
       <r>    6.7710    0.0000 </r>
       <r>    7.4479    0.0000 </r>
       <r>    8.0169    0.0000 </r>
       <r>    8.2926    0.0000 </r>
       <r>   10.8527    0.0000 </r>
       <r>   11.5809    0.0000 </r>
       <r>   14.9739    0.0000 </r>
       <r>   17.4728    0.0000 </r>
       <r>   17.4966    0.0000 </r>
       <r>   17.5262    0.0000 </r>
       <r>   18.8084    0.0000 </r>
       <r>   19.7515    0.0000 </r>
       <r>   20.3534    0.0000 </r>
       <r>   21.1063    0.0000 </r>
       <r>   22.3356    0.0000 </r>
       <r>   23.2148    0.0000 </r>
       <r>   24.9013    0.0000 </r>
       <r>   25.8860    0.0000 </r>
      </set>
      <set comment="kpoint 40">
       <r>   -0.3273    1.0000 </r>
       <r>    2.7394    1.0000 </r>
       <r>    3.9857    1.0000 </r>
       <r>    4.7078    1.0000 </r>
       <r>    6.0020    0.0000 </r>
       <r>    6.3968    0.0000 </r>
       <r>    6.8616    0.0000 </r>
       <r>    7.9293    0.0000 </r>
       <r>    8.4030    0.0000 </r>
       <r>    8.9060    0.0000 </r>
       <r>   10.9808    0.0000 </r>
       <r>   12.3841    0.0000 </r>
       <r>   14.6631    0.0000 </r>
       <r>   17.4830    0.0000 </r>
       <r>   17.4943    0.0000 </r>
       <r>   18.1609    0.0000 </r>
       <r>   18.5472    0.0000 </r>
       <r>   19.1948    0.0000 </r>
       <r>   19.8145    0.0000 </r>
       <r>   21.9538    0.0000 </r>
       <r>   22.5905    0.0000 </r>
       <r>   22.7674    0.0000 </r>
       <r>   23.7647    0.0000 </r>
       <r>   25.4251    0.0000 </r>
      </set>
      <set comment="kpoint 41">
       <r>    0.6874    1.0000 </r>
       <r>    3.0251    1.0000 </r>
       <r>    3.5634    1.0000 </r>
       <r>    4.4834    1.0000 </r>
       <r>    5.6738    0.0000 </r>
       <r>    6.3821    0.0000 </r>
       <r>    6.5007    0.0000 </r>
       <r>    8.6787    0.0000 </r>
       <r>    9.4952    0.0000 </r>
       <r>    9.8190    0.0000 </r>
       <r>   11.1530    0.0000 </r>
       <r>   12.8797    0.0000 </r>
       <r>   14.1897    0.0000 </r>
       <r>   17.0743    0.0000 </r>
       <r>   17.2133    0.0000 </r>
       <r>   17.4919    0.0000 </r>
       <r>   17.5009    0.0000 </r>
       <r>   18.2788    0.0000 </r>
       <r>   19.9272    0.0000 </r>
       <r>   21.6255    0.0000 </r>
       <r>   22.1632    0.0000 </r>
       <r>   22.9225    0.0000 </r>
       <r>   24.6027    0.0000 </r>
       <r>   25.4740    0.0000 </r>
      </set>
      <set comment="kpoint 42">
       <r>    1.5374    1.0000 </r>
       <r>    2.7919    1.0000 </r>
       <r>    3.4252    1.0000 </r>
       <r>    4.2710    1.0000 </r>
       <r>    5.8871    0.0000 </r>
       <r>    6.1932    0.0000 </r>
       <r>    6.6546    0.0000 </r>
       <r>    9.6598    0.0000 </r>
       <r>   10.4385    0.0000 </r>
       <r>   10.6881    0.0000 </r>
       <r>   11.6538    0.0000 </r>
       <r>   13.0356    0.0000 </r>
       <r>   13.4427    0.0000 </r>
       <r>   15.4150    0.0000 </r>
       <r>   16.2931    0.0000 </r>
       <r>   17.4782    0.0000 </r>
       <r>   17.4891    0.0000 </r>
       <r>   17.6864    0.0000 </r>
       <r>   18.1453    0.0000 </r>
       <r>   21.2014    0.0000 </r>
       <r>   21.3403    0.0000 </r>
       <r>   23.6200    0.0000 </r>
       <r>   26.1189    0.0000 </r>
       <r>   26.9359    0.0000 </r>
      </set>
      <set comment="kpoint 43">
       <r>    1.8379    1.0000 </r>
       <r>    2.6733    1.0000 </r>
       <r>    3.5613    1.0000 </r>
       <r>    3.9870    1.0000 </r>
       <r>    5.8965    0.0000 </r>
       <r>    6.2370    0.0000 </r>
       <r>    6.8567    0.0000 </r>
       <r>   10.2940    0.0000 </r>
       <r>   10.7808    0.0000 </r>
       <r>   11.2297    0.0000 </r>
       <r>   11.9637    0.0000 </r>
       <r>   12.4445    0.0000 </r>
       <r>   13.7835    0.0000 </r>
       <r>   14.4155    0.0000 </r>
       <r>   15.6123    0.0000 </r>
       <r>   17.4312    0.0000 </r>
       <r>   17.4706    0.0000 </r>
       <r>   17.5188    0.0000 </r>
       <r>   17.5945    0.0000 </r>
       <r>   20.3687    0.0000 </r>
       <r>   21.4018    0.0000 </r>
       <r>   23.9350    0.0000 </r>
       <r>   27.2002    0.0000 </r>
       <r>   27.4845    0.0000 </r>
      </set>
      <set comment="kpoint 44">
       <r>    0.5929    1.0000 </r>
       <r>    3.2855    1.0000 </r>
       <r>    3.7134    1.0000 </r>
       <r>    4.1781    1.0000 </r>
       <r>    5.7658    0.0000 </r>
       <r>    6.1308    0.0000 </r>
       <r>    6.5003    0.0000 </r>
       <r>    8.3356    0.0000 </r>
       <r>    9.4416    0.0000 </r>
       <r>    9.8121    0.0000 </r>
       <r>   11.0423    0.0000 </r>
       <r>   12.9755    0.0000 </r>
       <r>   14.3944    0.0000 </r>
       <r>   16.8411    0.0000 </r>
       <r>   17.4457    0.0000 </r>
       <r>   17.4940    0.0000 </r>
       <r>   17.4965    0.0000 </r>
       <r>   18.8391    0.0000 </r>
       <r>   20.2748    0.0000 </r>
       <r>   21.5063    0.0000 </r>
       <r>   21.9958    0.0000 </r>
       <r>   23.0934    0.0000 </r>
       <r>   24.0528    0.0000 </r>
       <r>   25.7092    0.0000 </r>
      </set>
      <set comment="kpoint 45">
       <r>    1.6046    1.0000 </r>
       <r>    3.1359    1.0000 </r>
       <r>    3.6135    1.0000 </r>
       <r>    4.2137    1.0000 </r>
       <r>    5.5606    0.0000 </r>
       <r>    5.9852    0.0000 </r>
       <r>    6.4171    0.0000 </r>
       <r>    8.9959    0.0000 </r>
       <r>   10.1996    0.0000 </r>
       <r>   10.5823    0.0000 </r>
       <r>   11.6924    0.0000 </r>
       <r>   13.3714    0.0000 </r>
       <r>   13.4764    0.0000 </r>
       <r>   15.1038    0.0000 </r>
       <r>   17.0268    0.0000 </r>
       <r>   17.4890    0.0000 </r>
       <r>   17.4930    0.0000 </r>
       <r>   18.4800    0.0000 </r>
       <r>   19.0562    0.0000 </r>
       <r>   20.9493    0.0000 </r>
       <r>   21.7756    0.0000 </r>
       <r>   23.0589    0.0000 </r>
       <r>   25.7468    0.0000 </r>
       <r>   26.7065    0.0000 </r>
      </set>
      <set comment="kpoint 46">
       <r>    2.2403    1.0000 </r>
       <r>    3.1620    1.0000 </r>
       <r>    3.4836    1.0000 </r>
       <r>    4.0176    1.0000 </r>
       <r>    5.5455    0.0000 </r>
       <r>    5.7999    0.0000 </r>
       <r>    6.9521    0.0000 </r>
       <r>    9.7898    0.0000 </r>
       <r>   10.2424    0.0000 </r>
       <r>   11.1477    0.0000 </r>
       <r>   11.9318    0.0000 </r>
       <r>   12.2441    0.0000 </r>
       <r>   14.0002    0.0000 </r>
       <r>   14.4794    0.0000 </r>
       <r>   16.4462    0.0000 </r>
       <r>   17.4920    0.0000 </r>
       <r>   17.4931    0.0000 </r>
       <r>   18.2504    0.0000 </r>
       <r>   18.4783    0.0000 </r>
       <r>   20.1061    0.0000 </r>
       <r>   21.0320    0.0000 </r>
       <r>   24.7147    0.0000 </r>
       <r>   25.7052    0.0000 </r>
       <r>   26.8206    0.0000 </r>
      </set>
      <set comment="kpoint 47">
       <r>    2.5757    1.0000 </r>
       <r>    3.0906    1.0000 </r>
       <r>    3.7335    1.0000 </r>
       <r>    4.0184    1.0000 </r>
       <r>    5.4653    0.0003 </r>
       <r>    5.5100    0.0000 </r>
       <r>    6.8311    0.0000 </r>
       <r>    9.5170    0.0000 </r>
       <r>   10.1016    0.0000 </r>
       <r>   11.0418    0.0000 </r>
       <r>   11.9035    0.0000 </r>
       <r>   12.0787    0.0000 </r>
       <r>   13.9229    0.0000 </r>
       <r>   14.7066    0.0000 </r>
       <r>   17.4795    0.0000 </r>
       <r>   17.4925    0.0000 </r>
       <r>   17.6770    0.0000 </r>
       <r>   17.9706    0.0000 </r>
       <r>   18.8760    0.0000 </r>
       <r>   20.5693    0.0000 </r>
       <r>   20.6078    0.0000 </r>
       <r>   23.8912    0.0000 </r>
       <r>   25.9793    0.0000 </r>
       <r>   27.5310    0.0000 </r>
      </set>
      <set comment="kpoint 48">
       <r>    2.9327    1.0000 </r>
       <r>    3.4568    1.0000 </r>
       <r>    3.6408    1.0000 </r>
       <r>    3.7043    1.0000 </r>
       <r>    5.3887    0.0086 </r>
       <r>    5.4421    0.0009 </r>
       <r>    7.1616    0.0000 </r>
       <r>    9.8415    0.0000 </r>
       <r>   10.2521    0.0000 </r>
       <r>   10.8355    0.0000 </r>
       <r>   11.2588    0.0000 </r>
       <r>   11.5059    0.0000 </r>
       <r>   14.0398    0.0000 </r>
       <r>   16.2815    0.0000 </r>
       <r>   16.5484    0.0000 </r>
       <r>   17.4915    0.0000 </r>
       <r>   17.4992    0.0000 </r>
       <r>   18.1103    0.0000 </r>
       <r>   19.3588    0.0000 </r>
       <r>   19.6392    0.0000 </r>
       <r>   20.5749    0.0000 </r>
       <r>   25.0142    0.0000 </r>
       <r>   25.2519    0.0000 </r>
       <r>   26.0796    0.0000 </r>
      </set>
      <set comment="kpoint 49">
       <r>   -1.4959    1.0000 </r>
       <r>    1.0567    1.0000 </r>
       <r>    5.2150    0.5293 </r>
       <r>    6.0987    0.0000 </r>
       <r>    6.1878    0.0000 </r>
       <r>    6.1878    0.0000 </r>
       <r>    6.7523    0.0000 </r>
       <r>    6.7523    0.0000 </r>
       <r>    8.7490    0.0000 </r>
       <r>    8.7490    0.0000 </r>
       <r>   10.6012    0.0000 </r>
       <r>   10.6012    0.0000 </r>
       <r>   15.6660    0.0000 </r>
       <r>   16.0843    0.0000 </r>
       <r>   17.4876    0.0000 </r>
       <r>   17.4955    0.0000 </r>
       <r>   17.7363    0.0000 </r>
       <r>   20.5696    0.0000 </r>
       <r>   20.5696    0.0000 </r>
       <r>   20.5811    0.0000 </r>
       <r>   23.3619    0.0000 </r>
       <r>   23.3619    0.0000 </r>
       <r>   25.3243    0.0000 </r>
       <r>   25.9189    0.0000 </r>
      </set>
      <set comment="kpoint 50">
       <r>   -1.2653    1.0000 </r>
       <r>    1.2930    1.0000 </r>
       <r>    4.9064    1.0000 </r>
       <r>    5.8754    0.0000 </r>
       <r>    6.0809    0.0000 </r>
       <r>    6.3664    0.0000 </r>
       <r>    6.7154    0.0000 </r>
       <r>    6.9362    0.0000 </r>
       <r>    8.6341    0.0000 </r>
       <r>    8.6814    0.0000 </r>
       <r>   10.6720    0.0000 </r>
       <r>   10.8207    0.0000 </r>
       <r>   16.0051    0.0000 </r>
       <r>   16.2860    0.0000 </r>
       <r>   17.4875    0.0000 </r>
       <r>   17.5014    0.0000 </r>
       <r>   18.0086    0.0000 </r>
       <r>   20.3375    0.0000 </r>
       <r>   20.5275    0.0000 </r>
       <r>   20.9951    0.0000 </r>
       <r>   22.3763    0.0000 </r>
       <r>   23.5486    0.0000 </r>
       <r>   25.0526    0.0000 </r>
       <r>   26.3891    0.0000 </r>
      </set>
      <set comment="kpoint 51">
       <r>   -0.6222    1.0000 </r>
       <r>    1.9068    1.0000 </r>
       <r>    4.3050    1.0000 </r>
       <r>    5.2495    0.3393 </r>
       <r>    5.9169    0.0000 </r>
       <r>    6.5222    0.0000 </r>
       <r>    6.7646    0.0000 </r>
       <r>    7.4414    0.0000 </r>
       <r>    8.5671    0.0000 </r>
       <r>    8.6826    0.0000 </r>
       <r>   10.7898    0.0000 </r>
       <r>   11.3568    0.0000 </r>
       <r>   15.4808    0.0000 </r>
       <r>   17.4831    0.0000 </r>
       <r>   17.4959    0.0000 </r>
       <r>   17.7855    0.0000 </r>
       <r>   18.7651    0.0000 </r>
       <r>   19.9012    0.0000 </r>
       <r>   20.2393    0.0000 </r>
       <r>   21.3232    0.0000 </r>
       <r>   22.0809    0.0000 </r>
       <r>   23.5974    0.0000 </r>
       <r>   23.9099    0.0000 </r>
       <r>   26.0709    0.0000 </r>
      </set>
      <set comment="kpoint 52">
       <r>    0.2732    1.0000 </r>
       <r>    2.4843    1.0000 </r>
       <r>    3.8371    1.0000 </r>
       <r>    4.7739    1.0000 </r>
       <r>    5.6259    0.0000 </r>
       <r>    6.3768    0.0000 </r>
       <r>    6.8863    0.0000 </r>
       <r>    8.2416    0.0000 </r>
       <r>    8.9974    0.0000 </r>
       <r>    9.0963    0.0000 </r>
       <r>   10.8941    0.0000 </r>
       <r>   11.8935    0.0000 </r>
       <r>   14.7328    0.0000 </r>
       <r>   17.4822    0.0000 </r>
       <r>   17.4925    0.0000 </r>
       <r>   18.4598    0.0000 </r>
       <r>   18.7126    0.0000 </r>
       <r>   19.3738    0.0000 </r>
       <r>   20.0984    0.0000 </r>
       <r>   20.4836    0.0000 </r>
       <r>   22.7879    0.0000 </r>
       <r>   23.7012    0.0000 </r>
       <r>   24.0464    0.0000 </r>
       <r>   24.4725    0.0000 </r>
      </set>
      <set comment="kpoint 53">
       <r>    1.1144    1.0000 </r>
       <r>    2.5202    1.0000 </r>
       <r>    3.6333    1.0000 </r>
       <r>    4.5195    1.0000 </r>
       <r>    5.8339    0.0000 </r>
       <r>    6.3791    0.0000 </r>
       <r>    6.7262    0.0000 </r>
       <r>    9.1433    0.0000 </r>
       <r>    9.7579    0.0000 </r>
       <r>   10.0966    0.0000 </r>
       <r>   11.1034    0.0000 </r>
       <r>   12.1860    0.0000 </r>
       <r>   14.0205    0.0000 </r>
       <r>   16.8095    0.0000 </r>
       <r>   17.4809    0.0000 </r>
       <r>   17.4918    0.0000 </r>
       <r>   18.0424    0.0000 </r>
       <r>   18.1174    0.0000 </r>
       <r>   19.0364    0.0000 </r>
       <r>   20.8286    0.0000 </r>
       <r>   21.9594    0.0000 </r>
       <r>   22.9393    0.0000 </r>
       <r>   25.9999    0.0000 </r>
       <r>   26.3256    0.0000 </r>
      </set>
      <set comment="kpoint 54">
       <r>    1.5471    1.0000 </r>
       <r>    2.3996    1.0000 </r>
       <r>    3.7473    1.0000 </r>
       <r>    4.1184    1.0000 </r>
       <r>    6.2961    0.0000 </r>
       <r>    6.5333    0.0000 </r>
       <r>    6.5959    0.0000 </r>
       <r>    9.6340    0.0000 </r>
       <r>   11.0112    0.0000 </r>
       <r>   11.0293    0.0000 </r>
       <r>   11.4413    0.0000 </r>
       <r>   12.0391    0.0000 </r>
       <r>   13.6031    0.0000 </r>
       <r>   14.8716    0.0000 </r>
       <r>   16.9106    0.0000 </r>
       <r>   17.4023    0.0000 </r>
       <r>   17.4897    0.0000 </r>
       <r>   17.5909    0.0000 </r>
       <r>   18.1030    0.0000 </r>
       <r>   20.5092    0.0000 </r>
       <r>   21.3920    0.0000 </r>
       <r>   23.1663    0.0000 </r>
       <r>   27.5837    0.0000 </r>
       <r>   27.9489    0.0000 </r>
      </set>
      <set comment="kpoint 55">
       <r>   -0.8264    1.0000 </r>
       <r>    1.7270    1.0000 </r>
[...]
       <r>   19.1096    0.0000 </r>
       <r>   19.2346    0.0000 </r>
       <r>   19.6796    0.0000 </r>
       <r>   19.8102    0.0000 </r>
       <r>   23.0685    0.0000 </r>
       <r>   23.6877    0.0000 </r>
       <r>   24.8603    0.0000 </r>
       <r>   25.4721    0.0000 </r>
      </set>
      <set comment="kpoint 93">
       <r>    2.0973    1.0000 </r>
       <r>    2.3589    1.0000 </r>
       <r>    4.3073    1.0000 </r>
       <r>    4.5263    1.0000 </r>
       <r>    5.2357    0.4133 </r>
       <r>    5.2920    0.1551 </r>
       <r>    7.2075    0.0000 </r>
       <r>    7.7050    0.0000 </r>
       <r>   10.3779    0.0000 </r>
       <r>   10.9267    0.0000 </r>
       <r>   11.5234    0.0000 </r>
       <r>   11.6221    0.0000 </r>
       <r>   15.1831    0.0000 </r>
       <r>   15.7629    0.0000 </r>
       <r>   17.4952    0.0000 </r>
       <r>   17.4976    0.0000 </r>
       <r>   17.9179    0.0000 </r>
       <r>   18.3495    0.0000 </r>
       <r>   19.3775    0.0000 </r>
       <r>   19.5803    0.0000 </r>
       <r>   23.5056    0.0000 </r>
       <r>   24.3081    0.0000 </r>
       <r>   24.9440    0.0000 </r>
       <r>   25.8456    0.0000 </r>
      </set>
      <set comment="kpoint 94">
       <r>    2.3632    1.0000 </r>
       <r>    2.5574    1.0000 </r>
       <r>    4.3233    1.0000 </r>
       <r>    4.6556    1.0000 </r>
       <r>    4.9883    0.9995 </r>
       <r>    5.2956    0.1432 </r>
       <r>    7.5475    0.0000 </r>
       <r>    7.9577    0.0000 </r>
       <r>   10.5501    0.0000 </r>
       <r>   10.8844    0.0000 </r>
       <r>   12.3779    0.0000 </r>
       <r>   12.4377    0.0000 </r>
       <r>   14.2641    0.0000 </r>
       <r>   14.5615    0.0000 </r>
       <r>   17.0990    0.0000 </r>
       <r>   17.4893    0.0000 </r>
       <r>   17.4967    0.0000 </r>
       <r>   17.8088    0.0000 </r>
       <r>   19.5391    0.0000 </r>
       <r>   19.7515    0.0000 </r>
       <r>   22.6305    0.0000 </r>
       <r>   23.4682    0.0000 </r>
       <r>   25.7843    0.0000 </r>
       <r>   26.4658    0.0000 </r>
      </set>
      <set comment="kpoint 95">
       <r>    2.7479    1.0000 </r>
       <r>    2.8457    1.0000 </r>
       <r>    4.2024    1.0000 </r>
       <r>    4.4568    1.0000 </r>
       <r>    4.8710    1.0000 </r>
       <r>    5.1209    0.9199 </r>
       <r>    7.2885    0.0000 </r>
       <r>    7.7263    0.0000 </r>
       <r>   10.5015    0.0000 </r>
       <r>   10.8645    0.0000 </r>
       <r>   12.5680    0.0000 </r>
       <r>   12.6793    0.0000 </r>
       <r>   14.4336    0.0000 </r>
       <r>   14.8795    0.0000 </r>
       <r>   17.0046    0.0000 </r>
       <r>   17.1688    0.0000 </r>
       <r>   17.4959    0.0000 </r>
       <r>   17.4982    0.0000 </r>
       <r>   19.7969    0.0000 </r>
       <r>   20.1191    0.0000 </r>
       <r>   22.9766    0.0000 </r>
       <r>   23.8763    0.0000 </r>
       <r>   25.1228    0.0000 </r>
       <r>   25.9322    0.0000 </r>
      </set>
      <set comment="kpoint 96">
       <r>    3.0587    1.0000 </r>
       <r>    3.1966    1.0000 </r>
       <r>    4.0736    1.0000 </r>
       <r>    4.0806    1.0000 </r>
       <r>    4.9786    0.9997 </r>
       <r>    4.9807    0.9996 </r>
       <r>    7.5255    0.0000 </r>
       <r>    7.9035    0.0000 </r>
       <r>   10.3298    0.0000 </r>
       <r>   10.4237    0.0000 </r>
       <r>   13.0999    0.0000 </r>
       <r>   13.3926    0.0000 </r>
       <r>   14.2199    0.0000 </r>
       <r>   14.6216    0.0000 </r>
       <r>   16.2795    0.0000 </r>
       <r>   16.7764    0.0000 </r>
       <r>   17.4955    0.0000 </r>
       <r>   17.4959    0.0000 </r>
       <r>   20.5971    0.0000 </r>
       <r>   20.6610    0.0000 </r>
       <r>   22.1871    0.0000 </r>
       <r>   22.9834    0.0000 </r>
       <r>   25.3068    0.0000 </r>
       <r>   25.6138    0.0000 </r>
      </set>
     </set>
    </set>
   </array>
  </eigenvalues>
  <separator name="orbital magnetization" >
   <v name="MAGDIPOLOUT">      0.00000000      0.00000000      0.00000000</v>
  </separator>
  <dos>
   <i name="efermi">      5.22022453 </i>
   <total>
    <array>
     <dimension dim="1">gridpoints</dimension>
     <dimension dim="2">spin</dimension>
     <field>energy</field>
     <field>total</field>
     <field>integrated</field>
     <set>
      <set comment="spin 1">
       <r>    -3.6562     0.0000     0.0000 </r>
       <r>    -3.5451     0.0000     0.0000 </r>
       <r>    -3.4340     0.0000     0.0000 </r>
       <r>    -3.3228     0.0000     0.0000 </r>
       <r>    -3.2117     0.0000     0.0000 </r>
       <r>    -3.1006     0.0000     0.0000 </r>
       <r>    -2.9895     0.0000     0.0000 </r>
       <r>    -2.8784     0.0000     0.0000 </r>
       <r>    -2.7673     0.0000     0.0000 </r>
       <r>    -2.6562     0.0000     0.0000 </r>
       <r>    -2.5451     0.0000     0.0000 </r>
       <r>    -2.4340     0.0000     0.0000 </r>
       <r>    -2.3229     0.0001     0.0000 </r>
       <r>    -2.2118     0.0026     0.0003 </r>
       <r>    -2.1007     0.0157     0.0020 </r>
       <r>    -1.9896     0.0283     0.0052 </r>
       <r>    -1.8784     0.0885     0.0150 </r>
       <r>    -1.7673     0.1383     0.0304 </r>
       <r>    -1.6562     0.0786     0.0391 </r>
       <r>    -1.5451     0.1039     0.0507 </r>
       <r>    -1.4340     0.1016     0.0620 </r>
       <r>    -1.3229     0.1716     0.0810 </r>
       <r>    -1.2118     0.2351     0.1071 </r>
       <r>    -1.1007     0.2640     0.1365 </r>
       <r>    -0.9896     0.1418     0.1522 </r>
       <r>    -0.8785     0.1640     0.1705 </r>
       <r>    -0.7674     0.2156     0.1944 </r>
       <r>    -0.6563     0.1441     0.2104 </r>
       <r>    -0.5452     0.2689     0.2403 </r>
       <r>    -0.4340     0.3392     0.2780 </r>
       <r>    -0.3229     0.3467     0.3165 </r>
       <r>    -0.2118     0.3750     0.3582 </r>
       <r>    -0.1007     0.3312     0.3950 </r>
       <r>     0.0104     0.3298     0.4316 </r>
       <r>     0.1215     0.2346     0.4577 </r>
       <r>     0.2326     0.2070     0.4807 </r>
       <r>     0.3437     0.4438     0.5300 </r>
       <r>     0.4548     0.4306     0.5778 </r>
       <r>     0.5659     0.4583     0.6287 </r>
       <r>     0.6770     0.5980     0.6952 </r>
       <r>     0.7881     0.5618     0.7576 </r>
       <r>     0.8992     0.7473     0.8406 </r>
       <r>     1.0104     0.5657     0.9035 </r>
       <r>     1.1215     0.4682     0.9555 </r>
       <r>     1.2326     0.4734     1.0081 </r>
       <r>     1.3437     0.5141     1.0652 </r>
       <r>     1.4548     0.7307     1.1464 </r>
       <r>     1.5659     1.7563     1.3416 </r>
       <r>     1.6770     1.7516     1.5362 </r>
       <r>     1.7881     1.3134     1.6821 </r>
       <r>     1.8992     1.4565     1.8439 </r>
       <r>     2.0103     1.1888     1.9760 </r>
       <r>     2.1214     0.9691     2.0837 </r>
       <r>     2.2325     1.2788     2.2258 </r>
       <r>     2.3436     1.6870     2.4132 </r>
       <r>     2.4548     1.6046     2.5915 </r>
       <r>     2.5659     1.2894     2.7347 </r>
       <r>     2.6770     1.5529     2.9073 </r>
       <r>     2.7881     1.5894     3.0839 </r>
       <r>     2.8992     1.8671     3.2913 </r>
       <r>     3.0103     1.7730     3.4883 </r>
       <r>     3.1214     1.8078     3.6892 </r>
       <r>     3.2325     2.0760     3.9198 </r>
       <r>     3.3436     1.4184     4.0774 </r>
       <r>     3.4547     1.1920     4.2099 </r>
       <r>     3.5658     1.7453     4.4038 </r>
       <r>     3.6769     2.0575     4.6324 </r>
       <r>     3.7880     2.0135     4.8561 </r>
       <r>     3.8992     1.8436     5.0610 </r>
       <r>     4.0103     2.6919     5.3601 </r>
       <r>     4.1214     2.8835     5.6804 </r>
       <r>     4.2325     2.6793     5.9781 </r>
       <r>     4.3436     3.1229     6.3251 </r>
       <r>     4.4547     3.2018     6.6809 </r>
       <r>     4.5658     3.0914     7.0243 </r>
       <r>     4.6769     2.4151     7.2927 </r>
       <r>     4.7880     1.5647     7.4665 </r>
       <r>     4.8991     1.2006     7.5999 </r>
       <r>     5.0102     1.1519     7.7279 </r>
       <r>     5.1213     1.2871     7.8709 </r>
       <r>     5.2324     1.3327     8.0190 </r>
       <r>     5.3436     1.9661     8.2374 </r>
       <r>     5.4547     2.5066     8.5159 </r>
       <r>     5.5658     3.1335     8.8641 </r>
       <r>     5.6769     3.1552     9.2146 </r>
       <r>     5.7880     3.3135     9.5828 </r>
       <r>     5.8991     3.9022    10.0164 </r>
       <r>     6.0102     3.4328    10.3978 </r>
       <r>     6.1213     3.0090    10.7321 </r>
       <r>     6.2324     2.9922    11.0645 </r>
       <r>     6.3435     3.2463    11.4252 </r>
       <r>     6.4546     3.3811    11.8009 </r>
       <r>     6.5657     2.9993    12.1341 </r>
       <r>     6.6768     2.7630    12.4411 </r>
       <r>     6.7880     2.6641    12.7371 </r>
       <r>     6.8991     3.1419    13.0862 </r>
       <r>     7.0102     2.7914    13.3964 </r>
       <r>     7.1213     2.1883    13.6395 </r>
       <r>     7.2324     1.8452    13.8445 </r>
       <r>     7.3435     1.4665    14.0075 </r>
       <r>     7.4546     1.2233    14.1434 </r>
       <r>     7.5657     1.3979    14.2987 </r>
       <r>     7.6768     1.3596    14.4498 </r>
       <r>     7.7879     1.0805    14.5698 </r>
       <r>     7.8990     1.1609    14.6988 </r>
       <r>     8.0101     1.4924    14.8646 </r>
       <r>     8.1213     1.2628    15.0049 </r>
       <r>     8.2324     1.3685    15.1570 </r>
       <r>     8.3435     1.2696    15.2980 </r>
       <r>     8.4546     1.1091    15.4213 </r>
       <r>     8.5657     1.0898    15.5424 </r>
       <r>     8.6768     1.2572    15.6820 </r>
       <r>     8.7879     1.4745    15.8459 </r>
       <r>     8.8990     1.1437    15.9729 </r>
       <r>     9.0101     1.1992    16.1062 </r>
       <r>     9.1212     1.5965    16.2836 </r>
       <r>     9.2323     1.4666    16.4465 </r>
       <r>     9.3434     0.9151    16.5482 </r>
       <r>     9.4545     0.8399    16.6415 </r>
       <r>     9.5657     1.2948    16.7854 </r>
       <r>     9.6768     1.6383    16.9674 </r>
       <r>     9.7879     2.1949    17.2113 </r>
       <r>     9.8990     2.3538    17.4728 </r>
       <r>    10.0101     2.3779    17.7370 </r>
       <r>    10.1212     2.3675    18.0001 </r>
       <r>    10.2323     2.5722    18.2859 </r>
       <r>    10.3434     2.2394    18.5347 </r>
       <r>    10.4545     2.0861    18.7665 </r>
       <r>    10.5656     2.1972    19.0106 </r>
       <r>    10.6767     2.4083    19.2782 </r>
       <r>    10.7878     3.1371    19.6267 </r>
       <r>    10.8989     3.5015    20.0158 </r>
       <r>    11.0101     3.6402    20.4202 </r>
       <r>    11.1212     3.1815    20.7737 </r>
       <r>    11.2323     2.9418    21.1006 </r>
       <r>    11.3434     2.5314    21.3818 </r>
       <r>    11.4545     2.0397    21.6084 </r>
       <r>    11.5656     2.2820    21.8620 </r>
       <r>    11.6767     2.2502    22.1120 </r>
       <r>    11.7878     1.5619    22.2856 </r>
       <r>    11.8989     1.4504    22.4467 </r>
       <r>    12.0100     1.6096    22.6255 </r>
       <r>    12.1211     1.2068    22.7596 </r>
       <r>    12.2322     1.3812    22.9131 </r>
       <r>    12.3433     1.6948    23.1014 </r>
       <r>    12.4545     1.6665    23.2866 </r>
       <r>    12.5656     1.1295    23.4121 </r>
       <r>    12.6767     0.5186    23.4697 </r>
       <r>    12.7878     0.2952    23.5025 </r>
       <r>    12.8989     0.4567    23.5532 </r>
       <r>    13.0100     0.7963    23.6417 </r>
       <r>    13.1211     0.8597    23.7372 </r>
       <r>    13.2322     0.8748    23.8344 </r>
       <r>    13.3433     1.2940    23.9782 </r>
       <r>    13.4544     1.3803    24.1316 </r>
       <r>    13.5655     0.8375    24.2246 </r>
       <r>    13.6766     0.4932    24.2794 </r>
       <r>    13.7877     0.9194    24.3816 </r>
       <r>    13.8989     1.0876    24.5024 </r>
       <r>    14.0100     1.0532    24.6194 </r>
       <r>    14.1211     1.4389    24.7793 </r>
       <r>    14.2322     1.6625    24.9640 </r>
       <r>    14.3433     1.3918    25.1187 </r>
       <r>    14.4544     1.5373    25.2895 </r>
       <r>    14.5655     1.6845    25.4766 </r>
       <r>    14.6766     1.9074    25.6886 </r>
       <r>    14.7877     1.5680    25.8628 </r>
       <r>    14.8988     0.9731    25.9709 </r>
       <r>    15.0099     0.9620    26.0778 </r>
       <r>    15.1210     1.1407    26.2045 </r>
       <r>    15.2321     1.0343    26.3194 </r>
       <r>    15.3433     0.6643    26.3932 </r>
       <r>    15.4544     0.6088    26.4609 </r>
       <r>    15.5655     0.5951    26.5270 </r>
       <r>    15.6766     0.7360    26.6088 </r>
       <r>    15.7877     1.0279    26.7230 </r>
       <r>    15.8988     1.1970    26.8560 </r>
       <r>    16.0099     0.9941    26.9664 </r>
       <r>    16.1210     0.7564    27.0505 </r>
       <r>    16.2321     0.8071    27.1402 </r>
       <r>    16.3432     1.2775    27.2821 </r>
       <r>    16.4543     1.3081    27.4274 </r>
       <r>    16.5654     1.4676    27.5905 </r>
       <r>    16.6765     1.1971    27.7235 </r>
       <r>    16.7877     1.3613    27.8748 </r>
       <r>    16.8988     1.4716    28.0383 </r>
       <r>    17.0099     1.3217    28.1851 </r>
       <r>    17.1210     1.3128    28.3310 </r>
       <r>    17.2321     1.6244    28.5115 </r>
       <r>    17.3432     2.2782    28.7646 </r>
       <r>    17.4543    11.4461    30.0363 </r>
       <r>    17.5654    20.5333    32.3177 </r>
       <r>    17.6765     7.1985    33.1176 </r>
       <r>    17.7876     2.0978    33.3506 </r>
       <r>    17.8987     1.8124    33.5520 </r>
       <r>    18.0098     1.5041    33.7191 </r>
       <r>    18.1209     1.5295    33.8891 </r>
       <r>    18.2321     2.0896    34.1212 </r>
       <r>    18.3432     1.7365    34.3142 </r>
       <r>    18.4543     2.1087    34.5485 </r>
       <r>    18.5654     2.2854    34.8024 </r>
       <r>    18.6765     1.8960    35.0130 </r>
       <r>    18.7876     2.2961    35.2682 </r>
       <r>    18.8987     2.5474    35.5512 </r>
       <r>    19.0098     1.8112    35.7524 </r>
       <r>    19.1209     1.5666    35.9265 </r>
       <r>    19.2320     1.8801    36.1354 </r>
       <r>    19.3431     2.0136    36.3591 </r>
       <r>    19.4542     1.8821    36.5682 </r>
       <r>    19.5653     1.7328    36.7608 </r>
       <r>    19.6765     1.3581    36.9117 </r>
       <r>    19.7876     1.4535    37.0732 </r>
       <r>    19.8987     2.4589    37.3464 </r>
       <r>    20.0098     2.5837    37.6334 </r>
       <r>    20.1209     2.1345    37.8706 </r>
       <r>    20.2320     1.9526    38.0875 </r>
       <r>    20.3431     1.9095    38.2997 </r>
       <r>    20.4542     1.6497    38.4830 </r>
       <r>    20.5653     2.1011    38.7164 </r>
       <r>    20.6764     2.3016    38.9722 </r>
       <r>    20.7875     2.0729    39.2025 </r>
       <r>    20.8986     1.4982    39.3690 </r>
       <r>    21.0097     1.3484    39.5188 </r>
       <r>    21.1209     1.2415    39.6567 </r>
       <r>    21.2320     1.3404    39.8056 </r>
       <r>    21.3431     1.9920    40.0270 </r>
       <r>    21.4542     2.2621    40.2783 </r>
       <r>    21.5653     1.7601    40.4739 </r>
       <r>    21.6764     1.5561    40.6468 </r>
       <r>    21.7875     1.1922    40.7792 </r>
       <r>    21.8986     0.9237    40.8819 </r>
       <r>    22.0097     1.2867    41.0248 </r>
       <r>    22.1208     1.2607    41.1649 </r>
       <r>    22.2319     0.9955    41.2755 </r>
       <r>    22.3430     1.1717    41.4057 </r>
       <r>    22.4541     1.2694    41.5467 </r>
       <r>    22.5653     1.5152    41.7151 </r>
       <r>    22.6764     1.4722    41.8787 </r>
       <r>    22.7875     1.1588    42.0074 </r>
       <r>    22.8986     1.3155    42.1536 </r>
       <r>    23.0097     1.7094    42.3435 </r>
       <r>    23.1208     1.8946    42.5540 </r>
       <r>    23.2319     1.4693    42.7173 </r>
       <r>    23.3430     1.0318    42.8319 </r>
       <r>    23.4541     0.8652    42.9280 </r>
       <r>    23.5652     1.6400    43.1103 </r>
       <r>    23.6763     1.4964    43.2765 </r>
       <r>    23.7874     1.1017    43.3989 </r>
       <r>    23.8985     1.1019    43.5213 </r>
       <r>    24.0097     0.9417    43.6260 </r>
       <r>    24.1208     0.7323    43.7073 </r>
       <r>    24.2319     0.9442    43.8123 </r>
       <r>    24.3430     1.4915    43.9780 </r>
       <r>    24.4541     1.4780    44.1422 </r>
       <r>    24.5652     1.2111    44.2768 </r>
       <r>    24.6763     1.1288    44.4022 </r>
       <r>    24.7874     1.0682    44.5209 </r>
       <r>    24.8985     0.9630    44.6279 </r>
       <r>    25.0096     1.0448    44.7439 </r>
       <r>    25.1207     0.9238    44.8466 </r>
       <r>    25.2318     1.3775    44.9996 </r>
       <r>    25.3429     1.4462    45.1603 </r>
       <r>    25.4541     1.6870    45.3478 </r>
       <r>    25.5652     2.1209    45.5834 </r>
       <r>    25.6763     1.7021    45.7725 </r>
       <r>    25.7874     1.8620    45.9794 </r>
       <r>    25.8985     2.2204    46.2261 </r>
       <r>    26.0096     2.1540    46.4655 </r>
       <r>    26.1207     1.4130    46.6224 </r>
       <r>    26.2318     0.7679    46.7078 </r>
       <r>    26.3429     0.3650    46.7483 </r>
       <r>    26.4540     0.4305    46.7962 </r>
       <r>    26.5651     0.7377    46.8781 </r>
       <r>    26.6762     1.4882    47.0435 </r>
       <r>    26.7873     1.4294    47.2023 </r>
       <r>    26.8985     1.1209    47.3268 </r>
       <r>    27.0096     1.0690    47.4456 </r>
       <r>    27.1207     0.5221    47.5036 </r>
       <r>    27.2318     0.5536    47.5651 </r>
       <r>    27.3429     0.8457    47.6591 </r>
       <r>    27.4540     0.7305    47.7403 </r>
       <r>    27.5651     0.6608    47.8137 </r>
       <r>    27.6762     0.5658    47.8765 </r>
       <r>    27.7873     0.3381    47.9141 </r>
       <r>    27.8984     0.1993    47.9362 </r>
       <r>    28.0095     0.1572    47.9537 </r>
       <r>    28.1206     0.1919    47.9750 </r>
       <r>    28.2318     0.1870    47.9958 </r>
       <r>    28.3429     0.0368    47.9999 </r>
       <r>    28.4540     0.0010    48.0000 </r>
       <r>    28.5651     0.0000    48.0000 </r>
       <r>    28.6762     0.0000    48.0000 </r>
       <r>    28.7873     0.0000    48.0000 </r>
       <r>    28.8984     0.0000    48.0000 </r>
       <r>    29.0095     0.0000    48.0000 </r>
       <r>    29.1206     0.0000    48.0000 </r>
       <r>    29.2317     0.0000    48.0000 </r>
       <r>    29.3428     0.0000    48.0000 </r>
       <r>    29.4539     0.0000    48.0000 </r>
       <r>    29.5650     0.0000    48.0000 </r>
       <r>    29.6762     0.0000    48.0000 </r>
      </set>
     </set>
    </array>
   </total>
  </dos>
 </calculation>
 <structure name="finalpos" >
  <crystal>
   <varray name="basis" >
    <v>       1.59924300      -2.76997000       0.00000000 </v>
    <v>       1.59924300       2.76997000       0.00000000 </v>
    <v>       0.00000000       0.00000000       5.07518500 </v>
   </varray>
   <i name="volume">     44.96466864 </i>
   <varray name="rec_basis" >
    <v>       0.31264792      -0.18050737       0.00000000 </v>
    <v>       0.31264792       0.18050737       0.00000000 </v>
    <v>       0.00000000       0.00000000       0.19703715 </v>
   </varray>
  </crystal>
  <varray name="positions" >
   <v>       0.66666700       0.33333300       0.25000000 </v>
   <v>       0.33333300       0.66666700       0.75000000 </v>
  </varray>
 </structure>
</modeling>
