unknown system                          
           1
     1.599243   -2.769970    0.000000
     1.599243    2.769970    0.000000
     0.000000    0.000000    5.075185
   Hf
     2
Direct configuration=     1
   0.66666700  0.33333300  0.25000000
   0.33333300  0.66666700  0.75000000
